2
step=0
Ar 1.0000001371742113 4.000100137174211 7.0000001371742115
Ar 1.9998998628257887 4.9999998628257885 7.9999998628257885
2
step=1
Ar 1.0000005488074624 4.000200548807462 7.000000548834911
Ar 1.9997994511925377 4.999999451192537 7.999999451165089
2
step=2
Ar 1.0000012350113958 4.000301235011396 7.000001235121218
Ar 1.9996987649886042 4.999998764988604 7.999998764878782
2
step=3
Ar 1.0000021958986816 4.0004021958986815 7.000002196173307
Ar 1.9995978041013185 4.999997804101318 7.999997803826693
2
step=4
Ar 1.0000034315830184 4.000503431583018 7.000003432132411
Ar 1.9994965684169816 4.999996568416981 7.999996567867589
2
step=5
Ar 1.0000049421791357 4.000604942179136 7.00000494314082
Ar 1.9993950578208644 4.999995057820864 7.99999505685918
2
step=6
Ar 1.0000067278027958 4.000706727802796 7.000006729341889
Ar 1.9992932721972043 4.999993272197204 7.999993270658111
2
step=7
Ar 1.0000087885707947 4.000808788570795 7.000008790880035
Ar 1.9991912114292054 4.999991211429205 7.999991209119965
2
step=8
Ar 1.0000111246009649 4.0009111246009645 7.0000111279007395
Ar 1.9990888753990352 4.999988875399035 7.9999888720992605
2
step=9
Ar 1.0000137360121768 4.001013736012177 7.000013740550557
Ar 1.9989862639878233 4.999986263987823 7.999986259449443
2
step=10
Ar 1.0000166229243408 4.001116622924341 7.000016628977107
Ar 1.9988833770756593 4.99998337707566 7.999983371022893
2
step=11
Ar 1.0000197854584085 4.001219785458409 7.000019793329087
Ar 1.9987802145415916 4.999980214541592 7.999980206670913
2
step=12
Ar 1.0000232237363758 4.001323223736376 7.000023233756265
Ar 1.9986767762636244 4.999976776263625 7.999976766243735
2
step=13
Ar 1.0000269378812834 4.001426937881284 7.000026950409488
Ar 1.9985730621187168 4.999973062118718 7.999973049590512
2
step=14
Ar 1.00003092801722 4.00153092801722 7.0000309434406836
Ar 1.9984690719827802 4.999969071982782 7.9999690565593164
2
step=15
Ar 1.000035194269323 4.001635194269324 7.000035213002859
Ar 1.998364805730677 4.999964805730678 7.999964786997141
2
step=16
Ar 1.000039736763782 4.001739736763783 7.000039759250107
Ar 1.998260263236218 4.999960263236219 7.999960240749893
2
step=17
Ar 1.0000445556278394 4.001844555627841 7.000044582337607
Ar 1.9981554443721607 4.999955444372162 7.999955417662393
2
step=18
Ar 1.000049650989793 4.001949650989794 7.0000496824216265
Ar 1.9980503490102073 4.999950349010208 7.9999503175783735
2
step=19
Ar 1.0000550229789977 4.002055022978999 7.000055059659524
Ar 1.9979449770210025 4.999944977021004 7.999944940340476
2
step=20
Ar 1.0000606717258682 4.002160671725869 7.000060714209753
Ar 1.997839328274132 4.999939328274134 7.999939285790247
2
step=21
Ar 1.0000665973618803 4.0022665973618805 7.000066646231862
Ar 1.99773340263812 4.9999334026381215 7.999933353768138
2
step=22
Ar 1.0000728000195733 4.0023728000195735 7.000072855886498
Ar 1.997627199980427 4.999927199980428 7.999927144113502
2
step=23
Ar 1.0000792798325524 4.002479279832553 7.0000793433354085
Ar 1.9975207201674479 4.99992072016745 7.9999206566645915
2
step=24
Ar 1.00008603693549 4.00258603693549 7.000086108741446
Ar 1.9974139630645102 4.999913963064512 7.999913891258554
2
step=25
Ar 1.0000930714641287 4.002693071464129 7.000093152268566
Ar 1.9973069285358716 4.999906928535873 7.999906847731434
2
step=26
Ar 1.0001003835552829 4.002800383555282 7.000100474081836
Ar 1.9971996164447174 4.999899616444719 7.999899525918164
2
step=27
Ar 1.0001079733468408 4.00290797334684 7.000108074347431
Ar 1.9970920266531593 4.9998920266531615 7.999891925652569
2
step=28
Ar 1.0001158409777675 4.003015840977767 7.000115953232643
Ar 1.9969841590222326 4.999884159022235 7.999884046767357
2
step=29
Ar 1.0001239865881062 4.003123986588106 7.000124110905877
Ar 1.996876013411894 4.999876013411896 7.999875889094123
2
step=30
Ar 1.0001324103189808 4.00323241031898 7.000132547536658
Ar 1.9967675896810193 4.999867589681021 7.999867452463342
2
step=31
Ar 1.0001411123125983 4.003341112312597 7.000141263295632
Ar 1.9966588876874019 4.999858887687404 7.999858736704368
2
step=32
Ar 1.0001500927122506 4.003450092712249 7.0001502583545685
Ar 1.9965499072877495 4.999849907287752 7.9998497416454315
2
step=33
Ar 1.0001593516623175 4.003559351662316 7.000159532886365
Ar 1.9964406483376826 4.999840648337685 7.999840467113635
2
step=34
Ar 1.000168889308268 4.003668889308267 7.000169087065047
Ar 1.996331110691732 4.999831110691734 7.999830912934953
2
step=35
Ar 1.0001787057966638 4.003778705796663 7.000178921065772
Ar 1.9962212942033364 4.999821294203339 7.999821078934228
2
step=36
Ar 1.0001888012751605 4.00388880127516 7.000189035064832
Ar 1.9961111987248397 4.999811198724842 7.999810964935168
2
step=37
Ar 1.0001991758925106 4.00399917589251 7.0001994292396565
Ar 1.9960008241074896 4.999800824107492 7.9998005707603435
2
step=38
Ar 1.0002098297985658 4.004109829798565 7.000210103768816
Ar 1.9958901702014344 4.999790170201437 7.999789896231184
2
step=39
Ar 1.000220763144279 4.004220763144278 7.000221058832022
Ar 1.9957792368557212 4.999779236855724 7.999778941167978
2
step=40
Ar 1.0002319760817076 4.004331976081706 7.000232294610133
Ar 1.9956680239182927 4.999768023918295 7.999767705389867
2
step=41
Ar 1.0002434687640145 4.004443468764013 7.000243811285157
Ar 1.9955565312359858 4.999756531235988 7.999756188714843
2
step=42
Ar 1.0002552413454722 4.004555241345471 7.00025560904025
Ar 1.995444758654528 4.999744758654531 7.99974439095975
2
step=43
Ar 1.0002672939814639 4.004667293981462 7.0002676880597265
Ar 1.9953327060185364 4.9997327060185395 7.9997323119402735
2
step=44
Ar 1.0002796268284866 4.004779626828484 7.000280048529055
Ar 1.9952203731715137 4.999720373171517 7.999719951470945
2
step=45
Ar 1.0002922400441538 4.004892240044152 7.000292690634864
Ar 1.9951077599558464 4.999707759955849 7.999707309365136
2
step=46
Ar 1.0003051337871975 4.005005133787195 7.0003056145649465
Ar 1.9949948662128025 4.999694866212805 7.9996943854350535
2
step=47
Ar 1.0003183082174714 4.005118308217469 7.0003188205082605
Ar 1.9948816917825287 4.9996816917825315 7.9996811794917395
2
step=48
Ar 1.0003317634959523 4.005231763495949 7.000332308654933
Ar 1.9947682365040478 4.999668236504051 7.999667691345067
2
step=49
Ar 1.000345499784744 4.005345499784741 7.000346079196262
Ar 1.994654500215256 4.999654500215259 7.999653920803738
2
step=50
Ar 1.0003595172470796 4.005459517247076 7.000360132324722
Ar 1.9945404827529205 4.999640482752923 7.999639867675278
2
step=51
Ar 1.0003738160473232 4.00557381604732 7.0003744682339635
Ar 1.994426183952677 4.99962618395268 7.9996255317660365
2
step=52
Ar 1.0003883963509739 4.005688396350971 7.000389087118818
Ar 1.9943116036490263 4.999611603649029 7.999610912881182
2
step=53
Ar 1.0004032583246671 4.005803258324664 7.000403989175303
Ar 1.994196741675333 4.999596741675336 7.999596010824697
2
step=54
Ar 1.0004184021361784 4.005918402136175 7.00041917460062
Ar 1.9940815978638216 4.999581597863824 7.99958082539938
2
step=55
Ar 1.0004338279544258 4.006033827954423 7.000434643593163
Ar 1.9939661720455741 4.999566172045577 7.999565356406837
2
step=56
Ar 1.000449535949472 4.006149535949469 7.000450396352519
Ar 1.993850464050528 4.999550464050531 7.999549603647481
2
step=57
Ar 1.0004655262925282 4.006265526292525 7.0004664330794695
Ar 1.9937344737074718 4.999534473707475 7.9995335669205305
2
step=58
Ar 1.0004817991559554 4.006381799155952 7.000482753975998
Ar 1.9936182008440444 4.999518200844047 7.999517246024002
2
step=59
Ar 1.0004983547132689 4.0064983547132655 7.00049935924529
Ar 1.993501645286731 4.999501645286734 7.99950064075471
2
step=60
Ar 1.0005151931391396 4.006615193139137 7.000516249091737
Ar 1.9933848068608602 4.999484806860863 7.999483750908263
2
step=61
Ar 1.0005323146093978 4.006732314609395 7.000533423720939
Ar 1.993267685390602 4.999467685390605 7.999466576279061
2
step=62
Ar 1.0005497193010358 4.006849719301033 7.000550883339711
Ar 1.993150280698964 4.999450280698967 7.999449116660289
2
step=63
Ar 1.0005674073922104 4.0069674073922075 7.000568628156081
Ar 1.9930325926077894 4.999432592607792 7.999431371843919
2
step=64
Ar 1.0005853790622463 4.007085379062244 7.000586658379299
Ar 1.9929146209377535 4.999414620937756 7.999413341620701
2
step=65
Ar 1.000603634491639 4.007203634491637 7.000604974219835
Ar 1.992796365508361 4.999396365508364 7.999395025780165
2
step=66
Ar 1.0006221738620569 4.007322173862055 7.000623575889386
Ar 1.992677826137943 4.999377826137946 7.999376424110614
2
step=67
Ar 1.0006409973563457 4.007440997356344 7.0006424636008795
Ar 1.9925590026436542 4.999359002643657 7.9993575363991205
2
step=68
Ar 1.0006601051585304 4.007560105158529 7.000661637568474
Ar 1.9924398948414694 4.999339894841472 7.999338362431526
2
step=69
Ar 1.0006794974538185 4.007679497453816 7.000681098007565
Ar 1.9923205025461814 4.999320502546184 7.999318901992435
2
step=70
Ar 1.0006991744286027 4.007799174428601 7.000700845134787
Ar 1.9922008255713972 4.9993008255714 7.999299154865213
2
step=71
Ar 1.0007191362704648 4.007919136270463 7.0007208791680196
Ar 1.992080863729535 4.999280863729538 7.9992791208319804
2
step=72
Ar 1.0007393831681781 4.0080393831681755 7.000741200326387
Ar 1.9919606168318218 4.999260616831825 7.999258799673613
2
step=73
Ar 1.0007599153117106 4.008159915311708 7.000761808830264
Ar 1.9918400846882893 4.999240084688293 7.999238191169736
2
step=74
Ar 1.0007807328922282 4.008280732892226 7.00078270490128
Ar 1.9917192671077717 4.999219267107775 7.99921729509872
2
step=75
Ar 1.000801836102098 4.008401836102096 7.00080388876232
Ar 1.991598163897902 4.999198163897905 7.99919611123768
2
step=76
Ar 1.0008232251348914 4.00852322513489 7.000825360637532
Ar 1.9914767748651085 4.999176774865112 7.999174639362468
2
step=77
Ar 1.0008449001853867 4.008644900185385 7.0008471207523275
Ar 1.9913550998146132 4.999155099814616 7.9991528792476725
2
step=78
Ar 1.0008668614495735 4.008766861449572 7.000869169333386
Ar 1.9912331385504265 4.999133138550429 7.999130830666614
2
step=79
Ar 1.0008891091246546 4.008889109124653 7.00089150660866
Ar 1.9911108908753454 4.9991108908753485 7.99910849339134
2
step=80
Ar 1.0009116434090504 4.009011643409049 7.000914132807377
Ar 1.9909883565909496 4.999088356590953 7.999085867192623
2
step=81
Ar 1.0009344645024012 4.0091344645024 7.000937048160044
Ar 1.9908655354975988 4.999065535497602 7.999062951839956
2
step=82
Ar 1.0009575726055715 4.00925757260557 7.000960252898451
Ar 1.9907424273944285 4.999042427394431 7.999039747101549
2
step=83
Ar 1.0009809679206525 4.0093809679206505 7.000983747255674
Ar 1.9906190320793475 4.99901903207935 7.999016252744326
2
step=84
Ar 1.0010046506509658 4.009504650650964 7.001007531466082
Ar 1.9904953493490343 4.9989953493490376 7.998992468533918
2
step=85
Ar 1.0010286210010666 4.009628621001065 7.001031605765337
Ar 1.9903713789989335 4.998971378998936 7.998968394234663
2
step=86
Ar 1.0010528791767477 4.009752879176746 7.001055970390399
Ar 1.9902471208232524 4.998947120823256 7.998944029609601
2
step=87
Ar 1.001077425385042 4.00987742538504 7.001080625579532
Ar 1.990122574614958 4.998922574614961 7.998919374420468
2
step=88
Ar 1.0011022598342267 4.010002259834225 7.001105571572305
Ar 1.9899977401657734 4.998897740165776 7.998894428427695
2
step=89
Ar 1.0011273827338263 4.010127382733825 7.001130808609597
Ar 1.9898726172661738 4.998872617266176 7.998869191390403
2
step=90
Ar 1.0011527942946166 4.010252794294615 7.001156336933602
Ar 1.9897472057053835 4.9988472057053865 7.998843663066398
2
step=91
Ar 1.0011784947286273 4.010378494728626 7.001182156787832
Ar 1.9896215052713726 4.998821505271375 7.998817843212168
2
step=92
Ar 1.001204484249147 4.010504484249146 7.001208268417121
Ar 1.989495515750853 4.998795515750856 7.998791731582879
2
step=93
Ar 1.0012307630707251 4.010630763070724 7.001234672067629
Ar 1.9893692369292748 4.998769236929277 7.998765327932371
2
step=94
Ar 1.0012573314091768 4.010757331409176 7.001261367986848
Ar 1.989242668590823 4.998742668590825 7.998738632013152
2
step=95
Ar 1.001284189481586 4.010884189481585 7.001288356423601
Ar 1.989115810518414 4.998715810518416 7.998711643576399
2
step=96
Ar 1.001311337506309 4.011011337506308 7.001315637628052
Ar 1.988988662493691 4.998688662493692 7.998684362371948
2
step=97
Ar 1.0013387757029781 4.011138775702977 7.001343211851707
Ar 1.9888612242970216 4.998661224297023 7.998656788148293
2
step=98
Ar 1.0013665042925062 4.0112665042925055 7.00137107934742
Ar 1.9887334957074936 4.998633495707495 7.99862892065258
2
step=99
Ar 1.0013945234970887 4.0113945234970885 7.001399240369395
Ar 1.988605476502911 4.998605476502913 7.998600759630605
2
step=100
Ar 1.0014228335402091 4.011522833540209 7.001427695173191
Ar 1.9884771664597907 4.998577166459793 7.998572304826809
2
step=101
Ar 1.0014514346466419 4.011651434646642 7.001456444015727
Ar 1.988348565353358 4.99854856535336 7.998543555984273
2
step=102
Ar 1.0014803270424564 4.011780327042456 7.001485487155288
Ar 1.9882196729575434 4.998519672957546 7.998514512844712
2
step=103
Ar 1.0015095109550207 4.011909510955021 7.001514824851524
Ar 1.988090489044979 4.998490489044982 7.998485175148476
2
step=104
Ar 1.0015389866130053 4.012038986613005 7.001544457365459
Ar 1.9879610133869945 4.998461013386997 7.998455542634541
2
step=105
Ar 1.0015687542463876 4.012168754246387 7.001574384959494
Ar 1.9878312457536123 4.998431245753615 7.998425615040506
2
step=106
Ar 1.001598814086455 4.012298814086455 7.001604607897412
Ar 1.987701185913545 4.998401185913547 7.998395392102588
2
step=107
Ar 1.0016291663658092 4.012429166365809 7.001635126444381
Ar 1.9875708336341906 4.998370833634192 7.998364873555619
2
step=108
Ar 1.0016598113183708 4.01255981131837 7.001665940866959
Ar 1.987440188681629 4.998340188681631 7.998334059133041
2
step=109
Ar 1.0016907491793818 4.012690749179381 7.0016970514331
Ar 1.987309250820618 4.99830925082062 7.9983029485669
2
step=110
Ar 1.0017219801854111 4.01282198018541 7.001728458412156
Ar 1.9871780198145887 4.998278019814591 7.998271541587844
2
step=111
Ar 1.0017535045743575 4.012953504574356 7.001760162074885
Ar 1.9870464954256424 4.9982464954256445 7.998239837925115
2
step=112
Ar 1.0017853225854547 4.013085322585453 7.001792162693452
Ar 1.9869146774145452 4.9982146774145475 7.998207837306548
2
step=113
Ar 1.0018174344592743 4.013217434459272 7.001824460541434
Ar 1.9867825655407256 4.998182565540728 7.998175539458566
2
step=114
Ar 1.001849840437731 4.013349840437729 7.001857055893829
Ar 1.986650159562269 4.998150159562271 7.998142944106171
2
step=115
Ar 1.0018825407640861 4.013482540764084 7.001889949027055
Ar 1.9865174592359138 4.998117459235916 7.998110050972945
2
step=116
Ar 1.0019155356829519 4.01361553568295 7.001923140218959
Ar 1.986384464317048 4.99808446431705 7.998076859781041
2
step=117
Ar 1.0019488254402957 4.013748825440294 7.0019566297488165
Ar 1.9862511745597042 4.9980511745597065 7.9980433702511835
2
step=118
Ar 1.0019824102834445 4.013882410283443 7.0019904178973436
Ar 1.9861175897165553 4.998017589716557 7.9980095821026564
2
step=119
Ar 1.0020162904610888 4.014016290461088 7.002024504946696
Ar 1.985983709538911 4.997983709538913 7.997975495053304
2
step=120
Ar 1.002050466223287 4.0141504662232865 7.002058891180476
Ar 1.9858495337767128 4.997949533776715 7.997941108819524
2
step=121
Ar 1.00208493782147 4.014284937821469 7.002093576883738
Ar 1.9857150621785298 4.9979150621785315 7.997906423116262
2
step=122
Ar 1.0021197055084452 4.014419705508445 7.00212856234299
Ar 1.9855802944915546 4.997880294491557 7.99787143765701
2
step=123
Ar 1.002154769538401 4.0145547695384005 7.002163847846204
Ar 1.9854452304615988 4.997845230461601 7.997836152153796
2
step=124
Ar 1.0021901301669112 4.014690130166911 7.002199433682818
Ar 1.9853098698330887 4.99780986983309 7.997800566317182
2
step=125
Ar 1.0022257876509397 4.014825787650939 7.002235320143738
Ar 1.98517421234906 4.997774212349062 7.997764679856262
2
step=126
Ar 1.0022617422488447 4.014961742248844 7.002271507521349
Ar 1.9850382577511552 4.997738257751156 7.997728492478651
2
step=127
Ar 1.0022979942203831 4.015097994220382 7.002307996109516
Ar 1.9849020057796167 4.997702005779618 7.997692003890484
2
step=128
Ar 1.0023345438267155 4.015234543826715 7.00234478620359
Ar 1.9847654561732844 4.997665456173285 7.99765521379641
2
step=129
Ar 1.0023713913304102 4.015371391330409 7.002381878100414
Ar 1.9846286086695897 4.997628608669591 7.997618121899586
2
step=130
Ar 1.002408536995448 4.015508536995447 7.002419272098328
Ar 1.9844914630045518 4.997591463004553 7.997580727901672
2
step=131
Ar 1.002445981087227 4.015645981087226 7.002456968497171
Ar 1.9843540189127729 4.997554018912774 7.997543031502829
2
step=132
Ar 1.0024837238725672 4.015783723872566 7.002494967598293
Ar 1.9842162761274327 4.997516276127434 7.997505032401707
2
step=133
Ar 1.002521765619715 4.015921765619714 7.002533269704552
Ar 1.984078234380285 4.997478234380286 7.997466730295448
2
step=134
Ar 1.0025601065983478 4.016060106598347 7.002571875120327
Ar 1.983939893401652 4.997439893401653 7.997428124879673
2
step=135
Ar 1.0025987470795796 4.016198747079579 7.002610784151519
Ar 1.9838012529204203 4.9974012529204215 7.997389215848481
2
step=136
Ar 1.0026376873359646 4.016337687335964 7.0026499971055545
Ar 1.9836623126640354 4.997362312664037 7.9973500028944455
2
step=137
Ar 1.0026769276415028 4.016476927641502 7.002689514291397
Ar 1.9835230723584971 4.9973230723584985 7.997310485708603
2
step=138
Ar 1.0027164682716447 4.016616468271644 7.002729336019549
Ar 1.9833835317283552 4.997283531728357 7.997270663980451
2
step=139
Ar 1.0027563095032956 4.016756309503295 7.002769462602053
Ar 1.9832436904967043 4.997243690496706 7.997230537397947
2
step=140
Ar 1.0027964516148216 4.016896451614821 7.002809894352509
Ar 1.9831035483851784 4.99720354838518 7.997190105647491
2
step=141
Ar 1.0028368948860535 4.017036894886053 7.002850631586065
Ar 1.9829631051139465 4.997163105113948 7.997149368413935
2
step=142
Ar 1.0028776395982926 4.017177639598292 7.002891674619435
Ar 1.9828223604017075 4.997122360401709 7.997108325380565
2
step=143
Ar 1.0029186860343147 4.017318686034314 7.002933023770898
Ar 1.9826813139656854 4.997081313965687 7.997066976229102
2
step=144
Ar 1.0029600344783764 4.0174600344783755 7.002974679360305
Ar 1.9825399655216236 4.997039965521625 7.997025320639695
2
step=145
Ar 1.0030016852162191 4.017601685216218 7.003016641709087
Ar 1.982398314783781 4.996998314783783 7.996983358290913
2
step=146
Ar 1.0030436385350747 4.017743638535074 7.003058911140258
Ar 1.9822563614649253 4.996956361464927 7.996941088859742
2
step=147
Ar 1.0030858947236705 4.01788589472367 7.0031014879784195
Ar 1.9821141052763296 4.996914105276331 7.9968985120215805
2
step=148
Ar 1.0031284540722345 4.018028454072234 7.00314437254977
Ar 1.9819715459277656 4.9968715459277675 7.99685562745023
2
step=149
Ar 1.0031713168725003 4.0181713168725 7.003187565182111
Ar 1.9818286831274996 4.996828683127502 7.996812434817889
2
step=150
Ar 1.003214483417713 4.018314483417713 7.003231066204848
Ar 1.9816855165822869 4.996785516582289 7.996768933795152
2
step=151
Ar 1.0032579540026336 4.018457954002634 7.0032748759490016
Ar 1.9815420459973663 4.996742045997369 7.9967251240509984
2
step=152
Ar 1.003301728923545 4.018601728923545 7.00331899474721
Ar 1.9813982710764548 4.996698271076458 7.99668100525279
2
step=153
Ar 1.0033458084782572 4.018745808478257 7.003363422933737
Ar 1.9812541915217428 4.9966541915217455 7.996636577066263
2
step=154
Ar 1.0033901929661122 4.018890192966112 7.003408160844478
Ar 1.9811098070338877 4.996609807033891 7.996591839155522
2
step=155
Ar 1.0034348826879902 4.019034882687991 7.003453208816963
Ar 1.9809651173120097 4.996565117312013 7.996546791183037
2
step=156
Ar 1.0034798779463145 4.019179877946315 7.003498567190369
Ar 1.9808201220536854 4.996520122053688 7.996501432809631
2
step=157
Ar 1.003525179045057 4.019325179045057 7.003544236305518
Ar 1.980674820954943 4.996474820954946 7.996455763694482
2
step=158
Ar 1.003570786289744 4.0194707862897445 7.00359021650489
Ar 1.980529213710256 4.996429213710258 7.99640978349511
2
step=159
Ar 1.0036166999874618 4.019616699987462 7.003636508132628
Ar 1.9803833000125382 4.996383300012541 7.996363491867372
2
step=160
Ar 1.0036629204468617 4.019762920446862 7.003683111534538
Ar 1.9802370795531383 4.9963370795531405 7.996316888465462
2
step=161
Ar 1.003709447978166 4.019909447978167 7.003730027058105
Ar 1.980090552021834 4.996290552021836 7.996269972941895
2
step=162
Ar 1.0037562828931745 4.020056282893175 7.003777255052493
Ar 1.9799437171068255 4.996243717106828 7.996222744947507
2
step=163
Ar 1.0038034255052684 4.020203425505269 7.003824795868552
Ar 1.9797965744947317 4.996196574494734 7.996175204131448
2
step=164
Ar 1.0038508761294174 4.0203508761294175 7.003872649858827
Ar 1.9796491238705825 4.996149123870585 7.996127350141173
2
step=165
Ar 1.0038986350821855 4.020498635082186 7.003920817377561
Ar 1.9795013649178144 4.996101364917817 7.996079182622439
2
step=166
Ar 1.003946702681736 4.020646702681736 7.003969298780705
Ar 1.979353297318264 4.996053297318267 7.996030701219295
2
step=167
Ar 1.0039950792478378 4.020795079247838 7.004018094425922
Ar 1.979204920752162 4.996004920752165 7.995981905574078
2
step=168
Ar 1.0040437651018717 4.0209437651018725 7.0040672046725945
Ar 1.9790562348981282 4.995956234898132 7.9959327953274055
2
step=169
Ar 1.0040927605668353 4.0210927605668365 7.004116629881832
Ar 1.9789072394331646 4.995907239433168 7.995883370118168
2
step=170
Ar 1.0041420659673501 4.021242065967352 7.004166370416475
Ar 1.9787579340326498 4.995857934032653 7.995833629583525
2
step=171
Ar 1.004191681629667 4.021391681629669 7.004216426641105
Ar 1.978608318370333 4.995808318370337 7.995783573358895
2
step=172
Ar 1.0042416078816718 4.021541607881674 7.00426679892205
Ar 1.978458392118328 4.995758392118332 7.99573320107795
2
step=173
Ar 1.0042918450528924 4.021691845052895 7.004317487627389
Ar 1.9783081549471075 4.995708154947112 7.995682512372611
2
step=174
Ar 1.0043423934745042 4.021842393474507 7.004368493126963
Ar 1.9781576065254958 4.9956576065255 7.995631506873037
2
step=175
Ar 1.004393253479336 4.021993253479339 7.004419815792378
Ar 1.9780067465206639 4.995606746520668 7.995580184207622
2
step=176
Ar 1.0044444254018774 4.022144425401881 7.004471455997017
Ar 1.9778555745981226 4.995555574598127 7.995528544002983
2
step=177
Ar 1.0044959095782837 4.022295909578287 7.004523414116039
Ar 1.9777040904217162 4.99550409042172 7.995476585883961
2
step=178
Ar 1.004547706346383 4.022447706346386 7.004575690526395
Ar 1.977552293653617 4.995452293653621 7.995424309473605
2
step=179
Ar 1.004599816045682 4.022599816045686 7.004628285606828
Ar 1.977400183954318 4.995400183954322 7.995371714393172
2
step=180
Ar 1.0046522390173729 4.022752239017377 7.0046811997378855
Ar 1.9772477609826271 4.995347760982631 7.9953188002621145
2
step=181
Ar 1.0047049756043398 4.022904975604344 7.004734433301921
Ar 1.9770950243956602 4.995295024395665 7.995265566698079
2
step=182
Ar 1.0047580261511644 4.023058026151168 7.004787986683105
Ar 1.9769419738488356 4.99524197384884 7.995212013316895
2
step=183
Ar 1.0048113910041332 4.023211391004137 7.004841860267435
Ar 1.9767886089958666 4.995188608995871 7.995158139732565
2
step=184
Ar 1.004865070511244 4.0233650705112485 7.004896054442734
Ar 1.9766349294887557 4.99513492948876 7.995103945557266
2
step=185
Ar 1.0049190650222124 4.023519065022217 7.004950569598668
Ar 1.9764809349777872 4.995080934977792 7.995049430401332
2
step=186
Ar 1.0049733748884782 4.0236733748884825 7.005005406126744
Ar 1.9763266251115215 4.995026625111526 7.994994593873256
2
step=187
Ar 1.005028000463212 4.023828000463216 7.005060564420327
Ar 1.9761719995367877 4.9949719995367925 7.994939435579673
2
step=188
Ar 1.0050829421013223 4.023982942101326 7.005116044874638
Ar 1.9760170578986773 4.994917057898682 7.994883955125362
2
step=189
Ar 1.0051382001594622 4.024138200159466 7.0051718478867695
Ar 1.9758617998405374 4.9948617998405425 7.9948281521132305
2
step=190
Ar 1.0051937749960358 4.024293774996039 7.005227973855686
Ar 1.9757062250039639 4.994806225003969 7.994772026144314
2
step=191
Ar 1.0052496669712057 4.024449666971209 7.00528442318224
Ar 1.975550333028794 4.994750333028799 7.99471557681776
2
step=192
Ar 1.005305876446899 4.024605876446902 7.00534119626917
Ar 1.9753941235531007 4.9946941235531055 7.99465880373083
2
step=193
Ar 1.005362403786815 4.024762403786818 7.005398293521116
Ar 1.9752375962131847 4.994637596213189 7.994601706478884
2
step=194
Ar 1.005419249356432 4.024919249356435 7.005455715344625
Ar 1.9750807506435677 4.994580750643572 7.994544284655375
2
step=195
Ar 1.0054764135230139 4.025076413523017 7.005513462148155
Ar 1.9749235864769858 4.994523586476991 7.994486537851845
2
step=196
Ar 1.0055338966556178 4.025233896655621 7.00557153434209
Ar 1.974766103344382 4.9944661033443865 7.99442846565791
2
step=197
Ar 1.0055916991251006 4.0253916991251035 7.005629932338742
Ar 1.9746083008748991 4.994408300874904 7.994370067661258
2
step=198
Ar 1.0056498213041267 4.025549821304129 7.005688656552361
Ar 1.974450178695873 4.9943501786958775 7.994311343447639
2
step=199
Ar 1.005708263567175 4.025708263567178 7.005747707399144
Ar 1.9742917364328247 4.994291736432829 7.994252292600856
2
step=200
Ar 1.0057670262905458 4.025867026290548 7.005807085297242
Ar 1.974132973709454 4.994232973709458 7.994192914702758
2
step=201
Ar 1.0058261098523684 4.026026109852371 7.005866790666768
Ar 1.9739738901476314 4.994173890147636 7.994133209333232
2
step=202
Ar 1.0058855146326087 4.026185514632611 7.005926823929805
Ar 1.9738144853673911 4.994114485367395 7.994073176070195
2
step=203
Ar 1.005945241013076 4.026345241013079 7.005987185510415
Ar 1.9736547589869238 4.994054758986928 7.994012814489585
2
step=204
Ar 1.0060052893774312 4.026505289377434 7.006047875834649
Ar 1.9734947106225686 4.993994710622573 7.993952124165351
2
step=205
Ar 1.006065660111193 4.026665660111196 7.006108895330551
Ar 1.9733343398888068 4.993934339888811 7.993891104669449
2
step=206
Ar 1.0061263536017473 4.02682635360175 7.00617024442817
Ar 1.9731736463982525 4.9938736463982565 7.99382975557183
2
step=207
Ar 1.0061873702383528 4.026987370238356 7.006231923559566
Ar 1.973012629761647 4.993812629761651 7.993768076440434
2
step=208
Ar 1.0062487104121502 4.0271487104121535 7.006293933158822
Ar 1.9728512895878496 4.993751289587854 7.993706066841178
2
step=209
Ar 1.0063103745161692 4.027310374516173 7.006356273662047
Ar 1.9726896254838306 4.993689625483834 7.993643726337953
2
step=210
Ar 1.006372362945336 4.02747236294534 7.006418945507392
Ar 1.9725276370546638 4.993627637054668 7.993581054492608
2
step=211
Ar 1.0064346760964817 4.027634676096485 7.006481949135052
Ar 1.972365323903518 4.993565323903522 7.993518050864948
2
step=212
Ar 1.0064973143683498 4.027797314368353 7.006545284987278
Ar 1.97220268563165 4.993502685631654 7.993454715012722
2
step=213
Ar 1.0065602781616039 4.027960278161607 7.006608953508386
Ar 1.9720397218383958 4.9934397218384 7.993391046491614
2
step=214
Ar 1.0066235678788358 4.028123567878839 7.006672955144763
Ar 1.971876432121164 4.993376432121168 7.993327044855237
2
step=215
Ar 1.006687183924574 4.028287183924577 7.00673729034488
Ar 1.9717128160754258 4.99331281607543 7.99326270965512
2
step=216
Ar 1.0067511267052904 4.028451126705293 7.006801959559297
Ar 1.9715488732947093 4.993248873294713 7.993198040440703
2
step=217
Ar 1.0068153966294102 4.028615396629412 7.006866963240676
Ar 1.9713846033705895 4.993184603370594 7.993133036759324
2
step=218
Ar 1.0068799941073185 4.02877999410732 7.006932301843786
Ar 1.9712200058926812 4.993120005892686 7.993067698156214
2
step=219
Ar 1.0069449195513693 4.028944919551371 7.0069979758255165
Ar 1.9710550804486304 4.993055080448635 7.9930020241744835
2
step=220
Ar 1.0070101733758936 4.029110173375895 7.007063985644881
Ar 1.9708898266241062 4.992989826624111 7.992936014355119
2
step=221
Ar 1.0070757559972072 4.029275755997209 7.007130331763032
Ar 1.9707242440027926 4.992924244002797 7.992869668236968
2
step=222
Ar 1.0071416678336202 4.0294416678336225 7.0071970146432685
Ar 1.9705583321663795 4.992858332166384 7.9928029853567315
2
step=223
Ar 1.0072079093054442 4.029607909305446 7.007264034751042
Ar 1.9703920906945553 4.99279209069456 7.992735965248958
2
step=224
Ar 1.0072744808350016 4.029774480835004 7.007331392553971
Ar 1.970225519164998 4.992725519165003 7.992668607446029
2
step=225
Ar 1.0073413828466335 4.029941382846635 7.007399088521847
Ar 1.970058617153366 4.992658617153371 7.992600911478153
2
step=226
Ar 1.007408615766709 4.030108615766711 7.007467123126646
Ar 1.9698913842332906 4.992591384233295 7.992532876873354
2
step=227
Ar 1.007476180023633 4.030276180023635 7.007535496842536
Ar 1.9697238199763667 4.992523819976371 7.992464503157464
2
step=228
Ar 1.0075440760478553 4.030444076047857 7.00760421014589
Ar 1.9695559239521443 4.992455923952148 7.99239578985411
2
step=229
Ar 1.0076123042718799 4.030612304271881 7.007673263515293
Ar 1.9693876957281198 4.992387695728124 7.992326736484707
2
step=230
Ar 1.0076808651302724 4.030780865130274 7.007742657431551
Ar 1.9692191348697272 4.992319134869732 7.992257342568449
2
step=231
Ar 1.0077497590596705 4.030949759059673 7.007812392377706
Ar 1.9690502409403292 4.992250240940334 7.992187607622294
2
step=232
Ar 1.0078189864987916 4.031118986498794 7.007882468839039
Ar 1.968881013501208 4.992181013501213 7.992117531160961
2
step=233
Ar 1.0078885478884427 4.031288547888445 7.007952887303086
Ar 1.968711452111557 4.992111452111562 7.992047112696914
2
step=234
Ar 1.0079584436715288 4.031458443671531 7.008023648259642
Ar 1.968541556328471 4.992041556328476 7.991976351740358
2
step=235
Ar 1.0080286742930622 4.0316286742930645 7.008094752200779
Ar 1.9683713257069375 4.991971325706943 7.991905247799221
2
step=236
Ar 1.0080992402001718 4.031799240200174 7.008166199620848
Ar 1.968200759799828 4.991900759799833 7.991833800379152
2
step=237
Ar 1.0081701418421123 4.031970141842114 7.008237991016496