3
step=0
Ar 1.000000138330279 4.000100138330279 7.000000138330279
Ar 1.9999 5.0 8.0
Ar 3.000049861669721 5.999949861669721 9.000099861669721
3
step=1
Ar 1.0000005534315501 4.000200553431319 7.000000553459056
Ar 1.9997999997934948 4.999999999738653 7.999999999752336
Ar 3.0000994467749553 5.999899446830029 9.000199446788608
3
step=2
Ar 1.0000012454147897 4.000301245413865 7.000001245524843
Ar 1.9996999991739528 4.999999998954639 7.999999999009303
Ar 3.000148755411258 5.999848755631497 9.000298755465854
3
step=3
Ar 1.000002214391519 4.000402214389206 7.000002214666722
Ar 1.9995999979348131 4.999999997386664 7.999999997523152
Ar 3.000197787673668 5.99979778822413 9.000397787810126
3
step=4
Ar 1.000003460473804 4.0005034604691785 7.000003461024349
Ar 1.9994999958694835 4.999999994773457 7.999999995046089
Ar 3.0002465436567127 5.999746544757364 9.000496543929561
3
step=5
Ar 1.000004983774258 4.000604983766164 7.000004984737956
Ar 1.9993999927713373 4.999999990853766 7.999999991330271
Ar 3.000295023454405 5.99969502538007 9.000595023931773
3
step=6
Ar 1.000006784406042 4.000706784393091 7.00000678594835
Ar 1.9992999884337117 4.9999999853663555 7.999999986127803
Ar 3.0003432271602466 5.999643230240553 9.000693227923847
3
step=7
Ar 1.000008862482867 4.0008088624634395 7.000008864796917
Ar 1.9991999826499045 4.999999978050004 7.999999979190736
Ar 3.000391154867229 5.999591159486554 9.000791156012346
3
step=8
Ar 1.0000112181189942 4.00091121809124 7.000011221425623
Ar 1.9990999752131722 4.999999968643503 7.999999970271064
Ar 3.000438806667834 5.999538813265255 9.000888808303312
3
step=9
Ar 1.0000138514292374 4.001013851391073 7.000013855977015
Ar 1.9989999659167268 4.99999995688565 7.999999959120721
Ar 3.000486182654036 5.999486191723276 9.000986184902263
3
step=10
Ar 1.0000167625289635 4.001116762478074 7.00001676859422
Ar 1.998899954553734 4.999999942515248 7.999999945491578
Ar 3.0005332829173024 5.999433295006676 9.0010832859142
3
step=11
Ar 1.0000199515340946 4.001219951467934 7.0000199594209525
Ar 1.9987999409173105 4.999999925271104 7.999999929135441
Ar 3.0005801075485947 5.99938012326096 9.001180111443604
3
step=12
Ar 1.000023418561109 4.001323418476897 7.000023428601511
Ar 1.998699924800521 4.999999904892024 7.999999909804048
Ar 3.00062665663837 5.999326676631076 9.001276661594439
3
step=13
Ar 1.0000271637270424 4.001427163621767 7.000027176280782
Ar 1.9985999059963764 4.999999881116811 7.999999887249064
Ar 3.0006729302765813 5.999272955261419 9.001372936470151
3
step=14
Ar 1.0000311871494894 4.001531187019907 7.00003120260424
Ar 1.9984998842978308 4.999999853684264 7.999999861222084
Ar 3.00071892855268 5.999218959295827 9.001468936173673
3
step=15
Ar 1.0000354889466052 4.001635488789238 7.00003550771795
Ar 1.9983998594977792 4.999999822333169 7.999999831474623
Ar 3.000764651555616 5.99916468887759 9.001564660807423
3
step=16
Ar 1.0000400692371065 4.001740069048243 7.000040091768569
Ar 1.998299831389055 4.999999786802305 7.99999979775812
Ar 3.000810099373839 5.999110144149449 9.001660110473308
3
step=17
Ar 1.0000449281402735 4.001844927915971 7.000044954903348
Ar 1.9981997997644272 4.999999746830434 7.999999759823929
Ar 3.0008552720952997 5.999055325253592 9.00175528527272
3
step=18
Ar 1.0000500657759503 4.00195006551203 7.000050097270133
Ar 1.9980997644165985 4.999999702156302 7.999999717423321
Ar 3.000900169807452 5.999000232331665 9.001850185306544
3
step=19
Ar 1.0000554822645475 4.002055481956598 7.000055519017366
Ar 1.997999725138202 4.9999996525186345 7.999999670307478
Ar 3.000944792597251 5.998944865524765 9.001944810675154
3
step=20
Ar 1.0000611777270427 4.002161177370417 7.000061220294087
Ar 1.9978996817217993 4.999999597656135 7.999999618227493
Ar 3.0009891405511584 5.998889224973445 9.002039161478416
3
step=21
Ar 1.0000671522849824 4.0022671518748005 7.000067201249937
Ar 1.9977996339598778 4.99999953730748 7.999999560934366
Ar 3.0010332137551403 5.998833310817718 9.002133237815693
3
step=22
Ar 1.0000734060604832 4.002373405591629 7.000073462035158
Ar 1.997699581644848 4.999999471211319 7.999999498179001
Ar 3.0010770122946693 5.998777123197051 9.002227039785838
3
step=23
Ar 1.0000799391762334 4.002479938643355 7.000080002800595
Ar 1.997599524569041 4.999999399106268 7.999999429712202
Ar 3.001120536254726 5.998720662250376 9.002320567487201
3
step=24
Ar 1.0000867517554943 4.002586751153005 7.000086823697697
Ar 1.9974994625247062 4.999999320730912 7.999999355284672
Ar 3.0011637857198 5.998663928116082 9.00241382101763
3
step=25
Ar 1.0000938439221017 4.002693843244177 7.000093924878522
Ar 1.9973993953040088 4.999999235823796 7.99999927464701
Ar 3.00120676077389 5.998606920932025 9.002506800474467
3
step=26
Ar 1.0001012158004672 4.002801215041049 7.000101306495732
Ar 1.997299322699027 4.999999144123427 7.999999187549709
Ar 3.0012494615005063 5.998549640835523 9.002599505954558
3
step=27
Ar 1.00010886751558 4.0029088666683705 7.000108968702602
Ar 1.9971992445017495 4.999999045368269 7.99999909374315
Ar 3.001291887982671 5.998492087963359 9.002691937554246
3
step=28
Ar 1.0001167991930082 4.003016798251473 7.000116911653016
Ar 1.997099160504073 4.9999989392967406 7.999998992977603
Ar 3.001334040302919 5.998434262451785 9.002784095369378
3
step=29
Ar 1.0001250109589002 4.003125009916266 7.000125135501474
Ar 1.9969990704978002 4.999998825647212 7.999998885003222
Ar 3.0013759185433004 5.998376164436521 9.002875979495302
3
step=30
Ar 1.0001335029399856 4.003233501789242 7.000133640403086
Ar 1.9968989742746361 4.999998704158001 7.999998769570044
Ar 3.001417522785379 5.998317794052755 9.002967590026868
3
step=31
Ar 1.000142275263578 4.003342273997475 7.000142426513583
Ar 1.9967988716261866 4.999998574567374 7.999998646427982
Ar 3.001458853110236 5.998259151435149 9.003058927058433
3
step=32
Ar 1.0001513280575756 4.003451326668625 7.000151493989311
Ar 1.9966987623439554 4.999998436613539 7.999998515326827
Ar 3.00149990959847 5.998200236717835 9.00314999068386
3
step=33
Ar 1.0001606614504628 4.003560659930934 7.000160842987236
Ar 1.9965986462193415 4.999998290034643 7.9999983760162445
Ar 3.0015406923301966 5.998141050034421 9.003240780996519
3
step=34
Ar 1.0001702755713116 4.003670273913235 7.000170473664946
Ar 1.9964985230436367 4.999998134568774 7.999998228245768
Ar 3.0015812013850525 5.99808159151799 9.003331298089286
3
step=35
Ar 1.0001801705497835 4.003780168744948 7.000180386180653
Ar 1.996398392608023 4.999997969953951 7.9999980717648
Ar 3.001621436842194 5.9980218613011 9.003421542054546
3
step=36
Ar 1.0001903465161306 4.003890344556083 7.000190580693192
Ar 1.9962982547035706 4.999997795928128 7.999997906322608
Ar 3.0016613987802994 5.997961859515788 9.0035115129842
3
step=37
Ar 1.0002008036011973 4.004000801477243 7.000201057362025
Ar 1.9961981091212342 4.999997612229185 7.99999773166832
Ar 3.001701087277569 5.997901586293572 9.003601210969654
3
step=38
Ar 1.000211541936422 4.004111539639623 7.000211816347242
Ar 1.9960979556518514 4.99999741859493 7.999997547550927
Ar 3.001740502411727 5.997841041765446 9.00369063610183
3
step=39
Ar 1.000222561653838 4.0042225591750125 7.0002228578095655
Ar 1.99599779408614 4.999997214763094 7.999997353719272
Ar 3.0017796442600226 5.997780226061892 9.003779788471162
3
step=40
Ar 1.0002338628860763 4.004333860215799 7.000234181910345
Ar 1.9958976242146949 4.999997000471328 7.999997149922055
Ar 3.0018185128992294 5.997719139312872 9.0038686681676
3
step=41
Ar 1.0002454457663656 4.004445442894966 7.000245788811568
Ar 1.9957974458279861 4.999996775457201 7.999996935907824
Ar 3.0018571084056487 5.997657781647833 9.003957275280609
3
step=42
Ar 1.000257310428535 4.004557307346096 7.000257678675854
Ar 1.9956972587163562 4.999996539458196 7.999996711424976
Ar 3.001895430855109 5.997596153195707 9.00404560989917
3
step=43
Ar 1.0002694570070152 4.004669453703374 7.00026985166646
Ar 1.9955970626700172 4.9999962922117085 7.999996476221754
Ar 3.0019334803229683 5.997534254084917 9.004133672111786
3
step=44
Ar 1.0002818856368394 4.004781882101587 7.000282307947285
Ar 1.9954968574790486 4.9999960334550435 7.999996230046242
Ar 3.001971256884113 5.997472084443369 9.004221462006473
3
step=45
Ar 1.0002945964536463 4.004894592676124 7.000295047682863
Ar 1.995396642933394 4.999995762925411 7.999995972646364
Ar 3.0020087606129606 5.997409644398464 9.004308979670773
3
step=46
Ar 1.0003075895936804 4.005007585562984 7.000308071038376
Ar 1.9952964188228597 4.9999954803599245 7.99999570376988
Ar 3.0020459915834605 5.997346934077091 9.004396225191744
3
step=47
Ar 1.0003208651937943 4.005120860898767 7.0003213781796445
Ar 1.9951961849371112 4.999995185495599 7.999995423164385
Ar 3.002082949869095 5.997283953605633 9.00448319865597
3
step=48
Ar 1.00033442339145 4.005234418820687 7.00033496927314
Ar 1.9950959410656708 4.999994878069344 7.999995130577302
Ar 3.0021196355428796 5.997220703109967 9.004569900149558
3
step=49
Ar 1.0003482643247206 4.005348259466565 7.000348844485977
Ar 1.994995686997915 4.999994557817969 7.999994825755885
Ar 3.0021560486773646 5.997157182715464 9.004656329758138
3
step=50
Ar 1.0003623881322918 4.005462382974836 7.000363003985924
Ar 1.9948954225230726 4.99999422447817 7.9999945084472115
Ar 3.002192189344636 5.997093392546991 9.004742487566865
3
step=51
Ar 1.0003767949534637 4.005576789484547 7.000377447941397
Ar 1.9947951474302208 4.999993877786536 7.999994178398182
Ar 3.0022280576163163 5.997029332728915 9.004828373660422
3
step=52
Ar 1.0003914849281519 4.0056914791353595 7.000392176521469
Ar 1.9946948615082833 4.999993517479538 7.9999938353555144
Ar 3.002263653563565 5.9969650033851 9.004913988123016
3
step=53
Ar 1.0004064581968903 4.005806452067554 7.000407189895864
Ar 1.9945945645460283 4.999993143293534 7.999993479065746
Ar 3.0022989772570816 5.996900404638909 9.00499933103839
3
step=54
Ar 1.0004217149008314 4.005921708422027 7.000422488234967
Ar 1.9944942563320651 4.999992754964761 7.999993109275225
Ar 3.0023340287671036 5.996835536613209 9.005084402489807
3
step=55
Ar 1.0004372551817489 4.006037248340296 7.000438071709818
Ar 1.9943939366548413 4.999992352229332 7.999992725730112
Ar 3.00236880816341 5.9967703994303685 9.005169202560069
3
step=56
Ar 1.0004530791820387 4.0061530719645 7.000453940492119
Ar 1.994293605302641 4.999991934823236 7.999992328176376
Ar 3.0024033155153207 5.996704993212259 9.005253731331504
3
step=57
Ar 1.000469187044721 4.006269179437402 7.0004700947542355
Ar 1.9941932620635814 4.9999915024823345 7.999991916359788
Ar 3.002437550891698 5.996639318080259 9.005337988885975
3
step=58
Ar 1.000485578913442 4.006385570902388 7.0004865346691965
Ar 1.994092906725611 4.999991054942355 7.999991490025923
Ar 3.0024715143609475 5.996573374155252 9.005421975304879
3
step=59
Ar 1.000502254932475 4.006502246503471 7.000503260410697
Ar 1.993992539076506 4.999990591938894 7.999991048920155
Ar 3.0025052059910196 5.996507161557631 9.005505690669146
3
step=60
Ar 1.0005192152467226 4.0066192063852935 7.0005202721531
Ar 1.9938921589038687 4.999990113207408 7.999990592787654
Ar 3.002538625849409 5.996440680407294 9.005589135059244
3
step=61
Ar 1.0005364600017186 4.0067364506931265 7.000537570071439
Ar 1.9937917659951239 4.999989618483217 7.999990121373384
Ar 3.0025717740031577 5.996373930823652 9.005672308555175
3
step=62
Ar 1.000553989343629 4.006853979572873 7.000555154341421
Ar 1.993691360137517 4.999989107501494 7.999989634422097
Ar 3.002604650518854 5.996306912925628 9.00575521123648
3
step=63
Ar 1.0005718034192543 4.006971793171069 7.000573025139424
Ar 1.993590941118111 4.99998857999727 7.999989131678336
Ar 3.0026372554626346 5.996239626831655 9.005837843182238
3
step=64
Ar 1.000589902376031 4.0070898916348865 7.000591182642504
Ar 1.9934905087237837 4.999988035705425 7.999988612886425
Ar 3.002669588900185 5.996172072659682 9.00592020447107
3
step=65
Ar 1.0006082863620331 4.0072082751121325 7.0006096270283935
Ar 1.993390062741226 4.999987474360689 7.999988077790472
Ar 3.0027016508967406 5.996104250527172 9.006002295181133
3
step=66
Ar 1.0006269555259744 4.007326943751253 7.000628358475505
Ar 1.9932896029569376 4.999986895697638 7.999987526134363
Ar 3.002733441517088 5.996036160551103 9.00608411539013
3
step=67
Ar 1.0006459100172094 4.007445897701335 7.000647377162934
Ar 1.993189129157226 4.999986299450686 7.999986957661759
Ar 3.0027649608255644 5.995967802847972 9.006165665175306
3
step=68
Ar 1.0006651499857357 4.007565137112106 7.000666683270457
Ar 1.9930886411282025 4.999985685354094 7.999986372116094
Ar 3.0027962088860614 5.995899177533794 9.006246944613448
3
step=69
Ar 1.000684675582196 4.007684662133937 7.00068627697854
Ar 1.9929881386557808 4.999985053141954 7.999985769240573
Ar 3.0028271857620226 5.9958302847241045 9.006327953780886
3
step=70
Ar 1.0007044869578792 4.007804472917845 7.000706158468332
Ar 1.9928876215256732 4.999984402548193 7.999985148778166
Ar 3.002857891516447 5.995761124533957 9.006408692753501
3
step=71
Ar 1.0007245842647219 4.007924569615493 7.000726327921676
Ar 1.9927870895233886 4.999983733306572 7.9999845104716085
Ar 3.0028883262118886 5.995691697077931 9.006489161606716
3
step=72
Ar 1.0007449676553115 4.008044952379193 7.000746785521104
Ar 1.9926865424342295 4.999983045150676 7.999983854063395
Ar 3.002918489910458 5.995622002470126 9.0065693604155
3
step=73
Ar 1.0007656372828866 4.0081656213619095 7.000767531449842
Ar 1.9925859800432897 4.999982337813917 7.999983179295781
Ar 3.002948382673823 5.995552040824169 9.006649289254378
3
step=74
Ar 1.0007865933013396 4.008286576717256 7.0007885658918125
Ar 1.9924854021354512 4.999981611029529 7.999982485910774
Ar 3.002978004563208 5.995481812253209 9.006728948197415
3
step=75
Ar 1.0008078358652182 4.008407818599504 7.000809889031634
Ar 1.9923848084953815 4.999980864530565 7.999981773650134
Ar 3.003007355639399 5.995411316869926 9.006808337318233
3
step=76
Ar 1.0008293651297275 4.008529347163576 7.000831501054628
Ar 1.992284198907531 4.999980098049894 7.999981042255372
Ar 3.00303643596274 5.995340554786524 9.006887456690002
3
step=77
Ar 1.0008511812507312 4.008651162565057 7.000853402146814
Ar 1.992183573156131 4.9999793113202 7.999980291467741
Ar 3.0030652455931364 5.995269526114739 9.006966306385445
3
step=78
Ar 1.0008732843847543 4.008773264960188 7.000875592494918
Ar 1.9920829310251895 4.999978504073972 7.9999795210282425
Ar 3.0030937845900545 5.995198230965834 9.00704488647684
3
step=79
Ar 1.000895674688984 4.008895654505873 7.00089807228637
Ar 1.99198227229849 4.999977676043514 7.999978730677613
Ar 3.0031220530125244 5.995126669450608 9.007123197036018
3
step=80
Ar 1.0009183523212726 4.009018331359679 7.00092084170931
Ar 1.9918815967595875 4.9999768269609275 7.999977920156329
Ar 3.0031500509191384 5.995054841679388 9.007201238134362
3
step=81
Ar 1.0009413174401378 4.0091412956798385 7.000943900952587
Ar 1.991780904191807 4.99997595655812 7.9999770892046
Ar 3.0031777783680536 5.994982747762037 9.007279009842815
3
step=82
Ar 1.0009645702047665 4.009264547625248 7.000967250205762
Ar 1.9916801943782398 4.999975064566795 7.9999762375623655
Ar 3.003205235416992 5.994910387807953 9.007356512231874
3
step=83
Ar 1.0009881107750151 4.009388087355476 7.000990889659111
Ar 1.9915794671017413 4.999974150718451 7.999975364969295
Ar 3.003232422123242 5.994837761926068 9.007433745371596
3
step=84
Ar 1.0010119393114123 4.00951191503076 7.001014819503625
Ar 1.9914787221449277 4.999973214744381 7.999974471164781
Ar 3.0032593385436583 5.994764870224854 9.007510709331596
3
step=85
Ar 1.0010360559751603 4.00963603081201 7.0010390399310145
Ar 1.9913779592901741 4.999972256375667 7.999973555887938
Ar 3.003285984734664 5.994691712812319 9.007587404181049
3
step=86
Ar 1.0010604609281373 4.0097604348608105 7.001063551133712
Ar 1.991277178319611 4.999971275343176 7.9999726188776
Ar 3.00331236075225 5.99461828979601 9.007663829988688
3
step=87
Ar 1.0010851543328991 4.0098851273394205 7.001088353304871
Ar 1.9911763790151222 4.99997027137756 7.999971659872317
Ar 3.0033384666519773 5.994544601283017 9.007739986822813
3
step=88
Ar 1.001110136352681 4.010010108410779 7.00111344663837
Ar 1.991075561158341 4.999969244209249 7.99997067861035
Ar 3.0033643024889765 5.994470647379968 9.00781587475128
3
step=89
Ar 1.0011354071513998 4.010135378238505 7.001138831328816
Ar 1.9909747245306488 4.999968193568455 7.999969674829672
Ar 3.00338986831795 5.994396428193037 9.007891493841512
3
step=90
Ar 1.0011609668936559 4.010260936986899 7.001164507571543
Ar 1.9908738689131713 4.9999671191851585 7.99996864826796
Ar 3.0034151641931714 5.994321943827939 9.007966844160498
3
step=91
Ar 1.0011868157447346 4.010386784820945 7.001190475562619
Ar 1.990772994086776 4.999966020789117 7.999967598662597
Ar 3.003440190168488 5.994247194389936 9.008041925774785
3
step=92
Ar 1.0012129538706087 4.010512921906311 7.001216735498844
Ar 1.9906720998320695 4.999964898109853 7.999966525750663
Ar 3.00346494629732 5.994172179983835 9.008116738750493
3
step=93
Ar 1.0012393814379406 4.010639348409355 7.001243287577755
Ar 1.9905711859293946 4.999963750876654 7.999965429268938
Ar 3.003489432632663 5.9940969007139895 9.008191283153307
3
step=94
Ar 1.0012660986140836 4.0107660644971235 7.001270131997626
Ar 1.9904702521588278 4.9999625788185735 7.999964308953896
Ar 3.003513649227087 5.994021356684302 9.008265559048478
3
step=95
Ar 1.0012931055670842 4.010893070337356 7.001297268957472
Ar 1.9903692983001762 4.99996138166442 7.9999631645417
Ar 3.0035375961327384 5.993945547998223 9.008339566500828
3
step=96
Ar 1.0013204024656839 4.0110203660984824 7.001324698657052
Ar 1.9902683241329744 4.999960159142761 7.999961995768204
Ar 3.00356127340134 5.993869474758755 9.008413305574745
3
step=97
Ar 1.0013479894793218 4.011147951949631 7.001352421296866
Ar 1.9901673294364826 4.999958910981916 7.9999608023689435
Ar 3.003584681084194 5.993793137068451 9.008486776334191
3
step=98
Ar 1.0013758667781358 4.011275828060627 7.001380437078164
Ar 1.9900663139896828 4.999957636909955 7.9999595840791375
Ar 3.00360781923218 5.993716535029416 9.0085599788427
3
step=99
Ar 1.0014040345329651 4.011403994601993 7.001408746202945
Ar 1.9899652775712766 4.999956336654694 7.999958340633684
Ar 3.003630687895757 5.9936396687433104 9.008632913163371
3
step=100
Ar 1.0014324929153522 4.011532451744956 7.00143734887396
Ar 1.9898642199596819 4.999955009943696 7.999957071767155
Ar 3.0036532871249646 5.993562538311346 9.008705579358885
3
step=101
Ar 1.0014612420975446 4.011661199661444 7.001466245294712
Ar 1.9897631409330305 4.99995365650426 7.9999557772137955
Ar 3.0036756169694234 5.9934851438342935 9.008777977491492
3
step=102
Ar 1.0014902822524974 4.011790238524092 7.001495435669462
Ar 1.9896620402691652 4.9999522760634285 7.999954456707519
Ar 3.003697677478336 5.993407485412478 9.008850107623019
3
step=103
Ar 1.0015196135538749 4.01191956850624 7.001524920203228
Ar 1.9895609177456364 4.999950868347975 7.999953109981905
Ar 3.003719468700487 5.993329563145783 9.008921969814866
3
step=104
Ar 1.0015492361760525 4.0120491897819415 7.001554699101791
Ar 1.9894597731397001 4.999949433084405 7.999951736770196
Ar 3.003740990684246 5.99325137713365 9.008993564128012
3
step=105
Ar 1.0015791502941194 4.012179102525959 7.001584772571693
Ar 1.9893586062283142 4.999947969998954 7.999950336805295
Ar 3.003762243477565 5.993172927475084 9.009064890623012
3
step=106
Ar 1.0016093560838801 4.012309306913769 7.001615140820243
Ar 1.9892574167881363 4.999946478817582 7.999948909819759
Ar 3.003783227127982 5.993094214268646 9.00913594936
3
step=107
Ar 1.001639853721857 4.012439803121564 7.001645804055515
Ar 1.9891562045955202 4.999944959265971 7.999947455545801
Ar 3.003803941682621 5.993015237612462 9.009206740398685
3
step=108
Ar 1.0016706433852918 4.012570591326253 7.001676762486358
Ar 1.9890549694265134 4.999943411069523 7.999945973715281
Ar 3.0038243871881933 5.99293599760422 9.009277263798362
3
step=109
Ar 1.0017017252521483 4.012701671705467 7.00170801632239
Ar 1.9889537110568543 4.999941833953357 7.999944464059708
Ar 3.0038445636909956 5.992856494341172 9.009347519617902
3
step=110
Ar 1.0017330995011142 4.012833044437557 7.001739565774005
Ar 1.988852429261969 4.999940227642303 7.999942926310233
Ar 3.003864471236915 5.992776727920136 9.009417507915764
3
step=111
Ar 1.0017647663116034 4.0129647097016 7.001771411052373
Ar 1.9887511238169684 4.999938591860902 7.999941360197648
Ar 3.0038841098714264 5.992696698437493 9.00948722874998
3
step=112
Ar 1.0017967258637577 4.013096667677398 7.001803552369447
Ar 1.9886497944966457 4.999936926333402 7.999939765452383
Ar 3.003903479639595 5.992616405989196 9.009556682178173
3
step=113
Ar 1.0018289783384493 4.01322891854548 7.001835989937958
Ar 1.988548441075473 4.999935230783754 7.999938141804499
Ar 3.003922580586076 5.9925358506707616 9.009625868257546
3
step=114
Ar 1.001861523917283 4.013361462487109 7.001868723971425
Ar 1.9884470633275984 4.999933504935608 7.99993648898369
Ar 3.0039414127551165 5.992455032577278 9.009694787044888
3
step=115
Ar 1.0018943627825985 4.013494299684276 7.001901754684153
Ar 1.988345661026843 4.999931748512315 7.999934806719276
Ar 3.0039599761905564 5.992373951803404 9.009763438596574
3
step=116
Ar 1.001927495117472 4.013627430319711 7.001935082291235
Ar 1.988244233946699 4.9999299612369175 7.999933094740202
Ar 3.003978270935827 5.992292608443367 9.009831822968565
3
step=117
Ar 1.0019609211057185 4.013760854576878 7.001968707008558
Ar 1.988142781860325 4.9999281428321485 7.999931352775033
Ar 3.0039962970339547 5.9922110025909685 9.00989994021641
3
step=118
Ar 1.001994640931895 4.013894572639982 7.002002629052803
Ar 1.988041304540544 4.9999262930204305 7.999929580551952
Ar 3.004014054527559 5.992129134339583 9.009967790395246
3
step=119
Ar 1.0020286547813013 4.0140285846939685 7.002036848641447
Ar 1.9879398017598409 4.999924411523869 7.999927777798756
Ar 3.004031543458856 5.992047003782159 9.010035373559798
3
step=120
Ar 1.002062962839983 4.014162890924525 7.002071365992768
Ar 1.9878382732903583 4.999922498064252 7.99992594424285
Ar 3.0040487638696565 5.99196461101122 9.010102689764384
3
step=121
Ar 1.0020975652947341 4.014297491518088 7.002106181325843
Ar 1.9877367189038948 4.999920552363045 7.999924079611252
Ar 3.004065715801369 5.991881956118864 9.010169739062908
3
step=122
Ar 1.0021324623330978 4.014432386661838 7.002141294860556
Ar 1.987635138371901 4.999918574141388 7.999922183630579
Ar 3.004082399294999 5.991799039196771 9.010236521508867
3
step=123
Ar 1.0021676541433704 4.014567576543708 7.002176706817599
Ar 1.987533531465477 4.999916563120094 7.9999202560270515
Ar 3.004098814391151 5.9917158603361935 9.010303037155353
3
step=124
Ar 1.0022031409146026 4.014703061352384 7.002212417418469
Ar 1.987431897955369 4.999914519019645 7.999918296526487
Ar 3.0041149611300266 5.991632419627967 9.010369286055047
3
step=125
Ar 1.002238922836602 4.014838841277305 7.00224842688548
Ar 1.9873302376119668 4.999912441560185 7.999916304854297
Ar 3.0041308395514292 5.991548717162505 9.010435268260226
3
step=126
Ar 1.0022750000999354 4.014974916508667 7.002284735441757
Ar 1.9872285502053006 4.999910330461524 7.999914280735484
Ar 3.004146449694762 5.991464753029804 9.010500983822762
3
step=127
Ar 1.0023113728959312 4.015111287237426 7.002321343311244
Ar 1.9871268355050375 4.999908185443129 7.999912223894638
Ar 3.0041617915990293 5.991380527319441 9.010566432794121
3
step=128
Ar 1.0023480414166814 4.015247953655298 7.0023582507187045
Ar 1.9870250932804794 4.999906006224122 7.9999101340559315
Ar 3.004176865302837 5.9912960401205755 9.010631615225366
3
step=129
Ar 1.0023850058550443 4.015384915954765 7.002395457889725
Ar 1.9869233233005588 4.999903792523278 7.99990801094312
Ar 3.004191670844395 5.991211291521953 9.010696531167158
3
step=130
Ar 1.0024222664046465 4.015522174329074 7.002432965050716
Ar 1.9868215253338364 4.99990154405902 7.999905854279533
Ar 3.0042062082615155 5.991126281611902 9.010761180669753
3
step=131
Ar 1.0024598232598851 4.0156597289722376 7.002470772428917
Ar 1.9867196991484983 4.9998992605494195 7.9999036637880785
Ar 3.004220477591615 5.991041010478339 9.010825563783008
3
step=132
Ar 1.002497676615931 4.0157975800790435 7.002508880252395
Ar 1.9866178445123523 4.999896941712187 7.99990143919123
Ar 3.004234478871715 5.9909554782087655 9.010889680556378
3
step=133
Ar 1.00253582666873 4.01593572784505 7.002547288750053
Ar 1.986515961192825 4.9998945872646745 7.999899180211031
Ar 3.0042482121384433 5.9908696848902725 9.010953531038918
3
step=134
Ar 1.0025742736150063 4.01607417246659 7.002585998151628
Ar 1.9864140489569586 4.999892196923868 7.999896886569087
Ar 3.0042616774280333 5.990783630609538 9.011017115279287
3
step=135
Ar 1.0026130176522636 4.016212914140777 7.002625008687696
Ar 1.9863121075714087 4.999889770406389 7.999894557986565
Ar 3.004274874776326 5.990697315452832 9.011080433325741
3
step=136
Ar 1.0026520589787886 4.0163519530655005 7.002664320589673
Ar 1.9862101368024396 4.999887307428485 7.999892194184187
Ar 3.00428780421877 5.990610739506012 9.011143485226143
3
step=137
Ar 1.0026913977936531 4.016491289439437 7.002703934089821
Ar 1.9861081364159225 4.999884807706031 7.999889794882229
Ar 3.0043004657904224 5.99052390285453 9.011206271027953
3
step=138
Ar 1.0027310342967164 4.016630923462044 7.002743849421245
Ar 1.9860061061773318 4.999882270954524 7.999887359800516
Ar 3.00431285952595 5.99043680558343 9.011268790778242
3
step=139
Ar 1.0027709686886275 4.016770855333569 7.0027840668179016
Ar 1.9859040458517416 4.999879696889081 7.9998848886584195
Ar 3.004324985459629 5.990349447777349 9.011331044523681
3
step=140
Ar 1.0028112011708277 4.016911085255046 7.002824586514599
Ar 1.9858019552038235 4.999877085224433 7.999882381174854
Ar 3.004336843625347 5.990261829520518 9.011393032310549
3
step=141
Ar 1.002851731945553 4.017051613428305 7.002865408747
Ar 1.985699833997843 4.999874435674927 7.999879837068272
Ar 3.004348434056602 5.990173950896765 9.01145475418473
3
step=142
Ar 1.0028925612158368 4.017192440055968 7.002906533751623
Ar 1.9855976819976555 4.999871747954516 7.999877256056664
Ar 3.0043597567865055 5.9900858119895135 9.011516210191715
3
step=143
Ar 1.0029336891855123 4.017333565341454 7.002947961765849
Ar 1.9854954989667046 4.999869021776759 7.99987463785755
Ar 3.0043708118477808 5.989997412881784 9.011577400376604
3
step=144
Ar 1.0029751160592144 4.017474989488983 7.002989693027921
Ar 1.985393284668018 4.99986625685482 7.999871982187979
Ar 3.004381599272765 5.989908753656194 9.011638324784103
3
step=145
Ar 1.0030168420423833 4.017616712703576 7.003031727776947
Ar 1.9852910388642042 4.999863452901458 7.999869288764525
Ar 3.00439211909341 5.989819834394964 9.01169898345853
3
step=146
Ar 1.003058867341266 4.017758735191057 7.003074066252906
Ar 1.9851887613174497 4.999860609629031 7.999866557303284
Ar 3.004402371341282 5.98973065517991 9.01175937644381
3
step=147
Ar 1.0031011921629192 4.017901057158059 7.003116708696646
Ar 1.9850864517895155 4.999857726749486 7.99986378751987
Ar 3.004412356047563 5.989641216092452 9.011819503783485
3
step=148
Ar 1.003143816715212 4.018043678812024 7.00315965534989
Ar 1.9849841100417343 4.999854803974362 7.99986097912941
Ar 3.004422073243051 5.989551517213611 9.0118793655207
3
step=149
Ar 1.0031867412068285 4.018186600361205 7.003202906455239
Ar 1.9848817358350064 4.999851841014781 7.999858131846543
Ar 3.0044315229581624 5.9894615586240105 9.011938961698219
3
step=150
Ar 1.0032299658472696 4.01832982201467 7.003246462256173
Ar 1.9847793289297977 4.999848837581448 7.9998552453854135
Ar 3.00444070522293 5.989371340403879 9.011998292358415
3
step=151
Ar 1.0032734908468568 4.018473343982305 7.003290322997055
Ar 1.984676889086135 4.999845793384646 7.99985231945967
Ar 3.0044496200670054 5.989280862633047 9.012057357543277
3
step=152
Ar 1.0033173164167335 4.018617166474813 7.003334488923135
Ar 1.984574416063604 4.999842708134232 7.99984935378246
Ar 3.00445826751966 5.989190125390952 9.012116157294408
3
step=153
Ar 1.0033614427688684 4.018761289703723 7.00337896028055
Ar 1.9844719096213452 4.999839581539637 7.99984634806643
Ar 3.004466647609784 5.989099128756638 9.012174691653023
3
step=154
Ar 1.0034058701160582 4.018905713881384 7.0034237373163295
Ar 1.9843693695180509 4.999836413309856 7.999843302023714
Ar 3.0044747603658886 5.989007872808757 9.012232960659958
3
step=155
Ar 1.0034505986719295 4.019050439220977 7.003468820278399
Ar 1.9842667955119617 4.999833203153452 7.999840215365939
Ar 3.0044826058161065 5.988916357625568 9.012290964355664
3
step=156
Ar 1.0034956286509424 4.01919546593651 7.003514209415579
Ar 1.9841641873608638 4.9998299507785475 7.999837087804215
Ar 3.004490183988192 5.98882458328494 9.012348702780207
3
step=157
Ar 1.003540960268392 4.019340794242823 7.0035599049775925
Ar 1.9840615448220846 4.999826655892822 7.999833919049133
Ar 3.0044974949095216 5.98873254986435 9.012406175973274
3
step=158
Ar 1.0035865937404123 4.019486424355595 7.003605907215066
Ar 1.9839588676524906 4.999823318203511 7.999830708810764
Ar 3.004504538607095 5.98864025744089 9.01246338397417
3
step=159
Ar 1.0036325292839776 4.019632356491339 7.003652216379531
Ar 1.9838561556084828 4.9998199374173975 7.99982745679865
Ar 3.0045113151075373 5.98854770609126 9.01252032682182
3
step=160
Ar 1.0036787671169065 4.019778590867411 7.00369883272343
Ar 1.9837534084459945 4.999816513240813 7.999824162721804
Ar 3.0045178244370967 5.988454895891772 9.012577004554766
3
step=161
Ar 1.0037253074578636 4.019925127702007 7.003745756500117
Ar 1.9836506259204871 4.999813045379633 7.9998208262887065
Ar 3.004524066621647 5.988361826918356 9.012633417211175
3
step=162
Ar 1.0037721505263626 4.0200719672141725 7.003792987963863
Ar 1.983547807786947 4.9998095335392705 7.9998174472073
Ar 3.004530041686688 5.988268499246553 9.012689564828834
3
step=163
Ar 1.003819296542769 4.0202191096238 7.003840527369858
Ar 1.9834449537998824 4.999805977424677 7.9998140251849845
Ar 3.004535749657346 5.98817491295152 9.012745447445155
3
step=164