3
step=0
Ar 1.000000138330279 4.000100138330279 7.000000138330279
Ar 1.9999 5.0 8.0
Ar 3.000049972333944 5.999949972333944 9.000099972333944
3
step=1
Ar 1.0000005534315493 4.000200553431318 7.0000005534590555
Ar 1.9997999998966485 4.999999999869227 7.999999999876069
Ar 3.0000998893550306 5.999899889366045 9.000199889357761
3
step=2
Ar 1.0000012454147842 4.000301245413859 7.000001245524837
Ar 1.9996999995863833 4.999999999476726 7.999999999504058
Ar 3.0001497510824895 5.999849751126537 9.00029975109341
3
step=3
Ar 1.0000022143914997 4.0004022143891875 7.0000022146667025
Ar 1.9995999989654307 4.999999998691357 7.9999999987596
Ar 3.0001995575355274 5.999799557645619 9.00039955756282
3
step=4
Ar 1.0000034604737547 4.0005034604691305 7.000003461024299
Ar 1.999499997929805 4.999999997381795 7.999999997518108
Ar 3.0002493087333266 5.999749308953455 9.000499308787898
3
step=5
Ar 1.0000049837741518 4.000604983766059 7.000004984737849
Ar 1.999399996375307 4.9999999954165295 7.999999995654775
Ar 3.000299004695046 5.999699005080176 9.000599004790521
3
step=6
Ar 1.0000067844058393 4.00070678439289 7.000006785948147
Ar 1.999299994197525 4.999999992663864 7.999999993044574
Ar 3.0003486454398214 5.999648646055876 9.000698645592543
3
step=7
Ar 1.0000088624825116 4.000808862463088 7.000008864796563
Ar 1.999199991291832 4.999999988991915 7.999999989562255
Ar 3.000398230986764 5.999598231910616 9.000798231215787
3
step=8
Ar 1.0000112181184106 4.000911218090661 7.000011221425042
Ar 1.999099987553386 4.999999984268611 7.999999985082345
Ar 3.0004477613549625 5.999547762674423 9.000897761682056
3
step=9
Ar 1.000013851428327 4.00101385139017 7.000013855976108
Ar 1.9989999828771294 4.999999978361692 7.999999979479149
Ar 3.000497236563482 5.999497238377288 9.000997237013122
3
step=10
Ar 1.000016762527601 4.001116762476723 7.000016768592864
Ar 1.9988999771577882 4.999999971138708 7.999999972626746
Ar 3.0005466566313634 5.9994466590491715 9.001096657230732
3
step=11
Ar 1.0000199515321242 4.0012199514659805 7.000019959418992
Ar 1.9987999702898704 4.999999962467019 7.999999964398991
Ar 3.0005960215776257 5.999396024719996 9.00119602235661
3
step=12
Ar 1.0000234185583396 4.001323418474152 7.000023428598757
Ar 1.9986999621676664 4.999999952213794 7.999999954669512
Ar 3.000645331421264 5.999345335419651 9.001295332412449
3
step=13
Ar 1.0000271637232436 4.001427163618004 7.000027176277006
Ar 1.9985999526852478 4.99999994024601 7.999999943311711
Ar 3.000694586181251 5.9992945911779945 9.001394587419918
3
step=14
Ar 1.0000311871443872 4.001531187014855 7.000031202599169
Ar 1.9984999417364662 4.999999926430451 7.999999930198761
Ar 3.000743785876535 5.999243792024847 9.001493787400666
3
step=15
Ar 1.0000354889398764 4.001635488782579 7.0000355077112655
Ar 1.998399929214953 4.99999991063371 7.999999915203609
Ar 3.000792930526042 5.999192937989999 9.001592932376308
3
step=16
Ar 1.0000400692283744 4.001740069039607 7.000040091759898
Ar 1.9982999150141185 4.999999892722181 7.9999998981989675
Ar 3.0008420201486765 5.999142029103205 9.001692022368438
3
step=17
Ar 1.000044928129102 4.001844927904926 7.000044954892258
Ar 1.9981998990271512 4.999999872562069 7.999999879057324
Ar 3.000891054763318 5.999091065394186 9.001791057398624
3
step=18
Ar 1.0000500657618387 4.001950065498085 7.0000500972561275
Ar 1.998099881147017 4.9999998500193765 7.999999857650931
Ar 3.000940034388824 5.999040046892631 9.001890037488407
3
step=19
Ar 1.000055482246925 4.00205548193919 7.00005551899988
Ar 1.997999861266458 4.9999998249599145 7.999999833851811
Ar 3.0009889590440304 5.998988973628195 9.001988962659304
3
step=20
Ar 1.0000611777052621 4.002161177348912 7.000061220272481
Ar 1.9978998392779925 4.999999797249295 7.9999998075317516
Ar 3.0010378287477493 5.998937845630499 9.002087832932807
3
step=21
Ar 1.0000671522583142 4.002267151848479 7.000067201223489
Ar 1.9977998150739136 4.99999976675293 7.999999778562309
Ar 3.0010866435187706 5.998886662929131 9.002186648330381
3
step=22
Ar 1.0000734060281091 4.0023734055596885 7.0000734620030585
Ar 1.9976997885462886 4.999999733336035 7.999999746814802
Ar 3.0011354033758617 5.998835425553647 9.00228540887347
3
step=23
Ar 1.00007993913724 4.002479938604898 7.0000800027619405
Ar 1.9975997595869583 4.999999696863624 7.999999712160316
Ar 3.0011841083377675 5.99878413353357 9.002384114583489
3
step=24
Ar 1.0000867517088654 4.002586751107033 7.0000868236514835
Ar 1.9974997280875364 4.999999657200512 7.999999674469699
Ar 3.0012327584232112 5.998732786898388 9.002482765481828
3
step=25
Ar 1.0000938438667124 4.002693843189588 7.000093924823636
Ar 1.997399693939408 4.999999614211308 7.99999963361356
Ar 3.001281353650893 5.998681385677558 9.002581361589852
3
step=26
Ar 1.000101215735076 4.002801214976624 7.000101306430947
Ar 1.9972996570337298 4.999999567760424 7.999999589462272
Ar 3.0013298940394915 5.998629929900504 9.002679902928906
3
step=27
Ar 1.0001088674388214 4.0029088665927715 7.000108968626568
Ar 1.9971996172614286 4.999999517712066 7.999999541885967
Ar 3.001378379607663 5.998578419596618 9.002778389520303
3
step=28
Ar 1.000116799103385 4.003016798163232 7.000116911564255
Ar 1.9970995745132005 4.999999463930235 7.999999490754539
Ar 3.0014268103740416 5.998526854795259 9.002876821385337
3
step=29
Ar 1.0001250108547755 4.00312500981378 7.000125135398368
Ar 1.9969995286795106 4.99999940627873 7.999999435937639
Ar 3.0014751863572395 5.998475235525751 9.002975198545276
3
step=30
Ar 1.0001335028195752 4.0032335016707625 7.000133640283873
Ar 1.9968994796505917 4.999999344621141 7.999999377304676
Ar 3.0015235075758473 5.99842356181739 9.00307352102136
3
step=31
Ar 1.0001422751249416 4.003342273861103 7.000142426376346
Ar 1.9967994273164438 4.999999278820854 7.999999314724818
Ar 3.001571774048433 5.998371833699436 9.003171788834809
3
step=32
Ar 1.000151327898608 4.003451326512298 7.000151493831971
Ar 1.9966993715668333 4.9999992087410465 7.999999248066986
Ar 3.001619985793544 5.99832005120112 9.003270002006817
3
step=33
Ar 1.0001606612688854 4.0035606597524245 7.000160842807543
Ar 1.9965993122912917 4.999999134244687 7.999999177199861
Ar 3.001668142829705 5.998268214351639 9.003368160558553
3
step=34
Ar 1.0001702753646633 4.003670273710135 7.000170473460471
Ar 1.9964992493791156 4.999999055194537 7.9999991019918735
Ar 3.0017162451754196 5.9982163231801575 9.003466264511163
3
step=35
Ar 1.0001801703154116 4.003780168514663 7.000180385948776
Ar 1.9963991827193652 4.999998971453144 7.99999902231121
Ar 3.00176429284917 5.998164377715809 9.003564313885768
3
step=36
Ar 1.0001903462511812 4.003890344295822 7.000190580431097
Ar 1.9962991122008638 4.99999888288285 7.999998938025809
Ar 3.0018122858694167 5.998112377987694 9.003662308703465
3
step=37
Ar 1.0002008033026055 4.00400080118401 7.000201057066686
Ar 1.9961990377121968 4.999998789345781 7.999998849003361
Ar 3.0018602242545986 5.998060324024884 9.003760248985326
3
step=38
Ar 1.000211541600902 4.004111539310208 7.000211816015417
Ar 1.9960989591417109 4.999998690703852 7.9999987551113065
Ar 3.001908108023134 5.998008215856416 9.003858134752402
3
step=39
Ar 1.0002225612778735 4.00422255880598 7.000222857437782
Ar 1.9959988763775136 4.999998586818765 7.999998656216836
Ar 3.0019559371934186 5.997956053511297 9.003955966025718
3
step=40
Ar 1.0002338624659088 4.004333859803476 7.000234181494895
Ar 1.995898789307472 4.999998477552006 7.99999855218689
Ar 3.002003711783828 5.997903837018502 9.004053742826274
3
step=41
Ar 1.0002454452979852 4.004445442435437 7.0002457883484945
Ar 1.995798697819212 4.999998362764847 7.999998442888154
Ar 3.002051431812717 5.997851566406973 9.004151465175049
3
step=42
Ar 1.0002573099076688 4.00455730683519 7.000257678160941
Ar 1.9956986018001175 4.999998242318345 7.999998328187063
Ar 3.002099097298418 5.997799241705623 9.004249133092996
3
step=43
Ar 1.0002694564291164 4.004669453136653 7.000269851095222
Ar 1.9955985011373296 4.999998116073337 7.999998207949797
Ar 3.002146708259244 5.997746862943334 9.004346746601046
3
step=44
Ar 1.0002818849970763 4.004781881474335 7.000282307314953
Ar 1.995498395717746 4.999997983890446 7.999998082042279
Ar 3.002194264713485 5.997694430148954 9.004444305720106
3
step=45
Ar 1.0002945957468905 4.004894591983338 7.000295046984379
Ar 1.9953982854280194 4.999997845630073 7.99999795033018
Ar 3.002241766679413 5.997641943351303 9.00454181047106
3
step=46
Ar 1.000307588814495 4.005007584799358 7.000308070268375
Ar 1.9952981701545578 4.9999977011524015 7.999997812678911
Ar 3.002289214175277 5.997589402579167 9.00463926087477
3
step=47
Ar 1.000320864336422 4.005120860058688 7.0003213773324475
Ar 1.9951980497835224 4.999997550317393 7.999997668953626
Ar 3.0023366072193056 5.997536807861304 9.004736656952069
3
step=48
Ar 1.0003344224498014 4.005234417898215 7.000334968342739
Ar 1.9950979242008275 4.999997392984789 7.999997519019221
Ar 3.002383945829708 5.99748415922644 9.004833998723774
3
step=49
Ar 1.0003482632923608 4.005348258455427 7.000348843466026
Ar 1.9949977932921397 4.999997229014108 7.99999736274033
Ar 3.0024312300246714 5.9974314567032705 9.004931286210672
3
step=50
Ar 1.0003623870024285 4.00546238186841 7.0003630028697215
Ar 1.9948976569428762 4.999997058264644 7.999997199981327
Ar 3.0024784598223633 5.997378700320459 9.005028519433534
3
step=51
Ar 1.000376793718934 4.005576788275852 7.0003774467218784
Ar 1.9947975150382053 4.999996880595471 7.999997030606326
Ar 3.0025256352409304 5.99732589010664 9.005125698413103
3
step=52
Ar 1.0003914835814098 4.0056914778170425 7.00039217519119
Ar 1.9946973674630444 4.999996695865432 7.999996854479176
Ar 3.0025727562984996 5.997273026090418 9.0052228231701
3
step=53
Ar 1.0004064567299924 4.005806450631875 7.0004071884469905
Ar 1.9945972141020591 4.99999650393315 7.999996671463462
Ar 3.0026198230131773 5.997220108300364 9.005319893725225
3
step=54
Ar 1.0004217133054238 4.005921706860848 7.000422486659257
Ar 1.9944970548396634 4.999996304657017 7.999996481422506
Ar 3.0026668354030495 5.9971671367650226 9.005416910099154
3
step=55
Ar 1.0004372534490535 4.006037246645067 7.000438069998614
Ar 1.9943968895600177 4.9999960978952 7.999996284219362
Ar 3.0027137934861816 5.997114111512905 9.00551387231254
3
step=56
Ar 1.0004530773028393 4.0061530701262456 7.000453938636331
Ar 1.9942967181470284 4.999995883505635 7.99999607971682
Ar 3.0027606972806202 5.997061032572495 9.005610780386013
3
step=57
Ar 1.0004691850093486 4.006269177446707 7.000470092744326
Ar 1.994196540484347 4.999995661346031 7.9999958677774
Ar 3.002807546804391 5.997007899972245 9.005707634340181
3
step=58
Ar 1.0004855767117602 4.0063855687493835 7.0004865324951675
Ar 1.994096356455369 4.999995431273863 7.999995648263354
Ar 3.0028543420754996 5.9969547137405765 9.005804434195632
3
step=59
Ar 1.0005022525538658 4.006502244177821 7.000503258062075
Ar 1.9939961659432335 4.999995193146378 7.999995421036664
Ar 3.0029010831119325 5.996901473905883 9.005901179972927
3
step=60
Ar 1.0005192126800715 4.0066192038761805 7.000520269618923
Ar 1.9938959688308215 4.99999494682059 7.999995185959041
Ar 3.002947769931656 5.996848180496526 9.005997871692607
3
step=61
Ar 1.0005364572353987 4.006736447989236 7.000537567340238
Ar 1.9937957650007558 4.999994692153278 7.999994942891925
Ar 3.0029944025526167 5.99679483354084 9.00609450937519
3
step=62
Ar 1.0005539863654862 4.006853976662378 7.000555151401207
Ar 1.9936955543353998 4.999994429000988 7.999994691696481
Ar 3.0030409809927416 5.996741433067128 9.006191093041174
3
step=63
Ar 1.000571800216591 4.006971790041616 7.000573021977673
Ar 1.9935953367168562 4.99999415722003 7.999994432233602
Ar 3.003087505269938 5.996687979103664 9.006287622711033
3
step=64
Ar 1.0005898989355908 4.00708988827358 7.00059117924614
Ar 1.9934951120269664 4.99999387666648 7.999994164363906
Ar 3.0031339754020943 5.996634471678691 9.006384098405219
3
step=65
Ar 1.0006082826699843 4.007208271505519 7.000609623383772
Ar 1.9933948801473103 4.999993587196174 7.999993887947734
Ar 3.0031803914070783 5.996580910820425 9.00648052014416
3
step=66
Ar 1.0006269515678936 4.007326939885305 7.000628354568399
Ar 1.9932946409592038 4.9999932886647125 7.9999936028451515
Ar 3.003226753302739 5.996527296557052 9.006576887948269
3
step=67
Ar 1.0006459057780652 4.007445893561434 7.0006473729785155
Ar 1.9931943943436994 4.9999929809274555 7.999993308915945
Ar 3.0032730611069063 5.996473628916729 9.006673201837929
3
step=68
Ar 1.0006651454498718 4.0075651326830295 7.000666678793282
Ar 1.9930941401815843 4.999992663839524 7.999993006019622
Ar 3.003319314837391 5.996419907927582 9.006769461833505
3
step=69
Ar 1.0006846707333137 4.00768465739984 7.000686272192529
Ar 1.99299387835338 4.999992337255796 7.999992694015409
Ar 3.0033655145119846 5.996366133617711 9.00686566795534
3
step=70
Ar 1.0007044817790198 4.0078044678622415 7.000706153356757
Ar 1.9928936087393412 4.999992001030912 7.999992372762253
Ar 3.003411660148459 5.996312306015184 9.006961820223758
3
step=71
Ar 1.0007245787382504 4.007924564221242 7.000726322467138
Ar 1.9927933312194546 4.999991655019265 7.999992042118817
Ar 3.0034577517645675 5.996258425148043 9.007057918659056
3
step=72
Ar 1.0007449617628974 4.00804494662848 7.000746779705518
Ar 1.9926930456734382 4.999991299075007 7.999991701943482
Ar 3.0035037893780445 5.996204491044298 9.007153963281514
3
step=73
Ar 1.0007656310054867 4.008165615236229 7.000767525254421
Ar 1.9925927519807407 4.999990933052045 7.9999913520943435
Ar 3.003549773006606 5.996150503731934 9.007249954111389
3
step=74
Ar 1.0007865866191794 4.008286570197393 7.000788559297046
Ar 1.9924924500205399 4.999990556804038 7.999990992429213
Ar 3.0035957026679476 5.996096463238904 9.007345891168915
3
step=75
Ar 1.0008078287577733 4.008407811665517 7.000809882017273
Ar 1.9923921396717421 4.999990170184401 7.999990622805615
Ar 3.003641578379748 5.996042369593134 9.007441774474309
3
step=76
Ar 1.0008293575757046 4.00852933979478 7.000831493599661
Ar 1.9922918208129812 4.9999897730463 7.999990243080785
Ar 3.003687400159666 5.995988222822522 9.007537604047762
3
step=77
Ar 1.0008511732280496 4.0086511547400026 7.000853394229455
Ar 1.9921914933226175 4.999989365242652 7.999989853111672
Ar 3.0037331680253425 5.995934022954937 9.007633379909448
3
step=78
Ar 1.0008732758705259 4.008773256656644 7.00087558409258
Ar 1.9920911570787367 4.999988946626126 7.999989452754933
Ar 3.0037788819943994 5.9958797700182185 9.007729102079518
3
step=79
Ar 1.0008956656594945 4.008895645700808 7.0008980633756535
Ar 1.9919908119591498 4.999988517049139 7.999989041866937
Ar 3.0038245420844403 5.9958254640401805 9.007824770578102
3
step=80
Ar 1.000918342751961 4.009018322029243 7.000920832265977
Ar 1.9918904578413905 4.999988076363855 7.999988620303757
Ar 3.0038701483130508 5.9957711050486076 9.00792038542531
3
step=81
Ar 1.000941307305577 4.009141285799339 7.000943890951544
Ar 1.9917900946027158 4.999987624422188 7.9999881879211765
Ar 3.0039157006977972 5.995716693071255 9.008015946641228
3
step=82
Ar 1.0009645594786427 4.0092645371691376 7.00096723962104
Ar 1.9916897221201042 4.999987161075796 7.999987744574683
Ar 3.0039611992562287 5.995662228135853 9.008111454245926
3
step=83
Ar 1.0009880994301075 4.009388076297327 7.000990878463843
Ar 1.9915893402702547 4.999986686176085 7.999987290119469
Ar 3.0040066440058757 5.995607710270099 9.008206908259451
3
step=84
Ar 1.0010119273195717 4.009511903343246 7.001014807670029
Ar 1.9914889489295862 4.999986199574201 7.999986824410431
Ar 3.0040520349642503 5.995553139501669 9.008302308701829
3
step=85
Ar 1.001036043307289 4.009636018466887 7.00103902743037
Ar 1.9913885479742364 4.999985701121038 7.999986347302169
Ar 3.0040973721488466 5.995498515858206 9.008397655593065
3
step=86
Ar 1.001060447554167 4.009760421828894 7.001063537936339
Ar 1.9912881372800604 4.999985190667229 7.999985858648983
Ar 3.0041426555771413 5.995443839367328 9.008492948953146
3
step=87
Ar 1.0010851402217698 4.009885113590566 7.001088339380109
Ar 1.9911877167226302 4.999984668063149 7.999985358304873
Ar 3.004187885266593 5.9953891100566254 9.008588188802037
3
step=88
Ar 1.001110121472319 4.010010093913862 7.001113431954557
Ar 1.9910872861772335 4.999984133158914 7.999984846123538
Ar 3.0042330612346415 5.99533432795366 9.00868337515968
3
step=89
Ar 1.001135391468696 4.010135362961397 7.001138815853264
Ar 1.9909868455188728 4.999983585804378 7.999984321958376
Ar 3.0042781834987102 5.995279493085968 9.008778508046003
3
step=90
Ar 1.0011609503744427 4.010260920896448 7.00116449127052
Ar 1.9908863946222644 4.999983025849134 7.999983785662482
Ar 3.004323252076204 5.995224605481055 9.00887358748091
3
step=91
Ar 1.0011867983537646 4.010386767882952 7.001190458401324
Ar 1.9907859333618367 4.999982453142511 7.999983237088646
Ar 3.004368266984511 5.9951696651664035 9.008968613484283
3
step=92
Ar 1.001212935571531 4.0105129040855125 7.001216717441385
Ar 1.9906854616117307 4.999981867533576 7.999982676089353
Ar 3.004413228241 5.995114672169466 9.009063586075989
3
step=93
Ar 1.0012393621932774 4.010639329669395 7.001243268587125
Ar 1.990584979245797 4.999981268871128 7.99998210251678
Ar 3.004458135863024 5.995059626517668 9.00915850527587
3
step=94
Ar 1.0012660783852079 4.010766044800534 7.001270112035681
Ar 1.9904844861375965 4.999980657003703 7.999981516222799
Ar 3.0045029898679183 5.995004528238411 9.009253371103751
3
step=95
Ar 1.0012930843141954 4.010893049645533 7.001297247984908
Ar 1.9903839821603986 4.999980031779567 7.99998091705897
Ar 3.004547790273 5.994949377359066 9.009348183579437
3
step=96
Ar 1.0013203801477846 4.011020344371666 7.001324676633379
Ar 1.99028346718718 4.99997939304672 7.999980304876546
Ar 3.0045925370955695 5.994894173906978 9.009442942722712
3
step=97
Ar 1.0013479660541929 4.011147929146877 7.001352398180387
Ar 1.9901829410906244 4.9999787406528915 7.999979679526467
Ar 3.0046372303529103 5.994838917909467 9.009537648553342
3
step=98
Ar 1.0013758422023127 4.011275804139787 7.00138041282595
Ar 1.9900824037431204 4.999978074445541 7.999979040859359
Ar 3.004681870062288 5.994783609393825 9.009632301091074
3
step=99
Ar 1.001404008761713 4.011403969519691 7.001408720770807
Ar 1.9899818550167612 4.999977394271857 7.9999783887255385
Ar 3.004726456240952 5.994728248387318 9.00972690035563
3
step=100
Ar 1.0014324659026412 4.0115324254565605 7.001437322216429
Ar 1.9898812947833435 4.999976699978755 7.999977722975004
Ar 3.0047709889061336 5.994672834917185 9.00982144636672
3
step=101
Ar 1.0014612137960246 4.011661172121049 7.001466217365011
Ar 1.9897807229143663 4.999975991412877 7.999977043457439
Ar 3.004815468075048 5.994617369010638 9.00991593914403
3
step=102
Ar 1.0014902526134721 4.011790209684488 7.001495406419482
Ar 1.9896801392810295 4.999975268420591 7.99997635002221
Ar 3.004859893764893 5.994561850694865 9.010010378707227
3
step=103
Ar 1.0015195825272767 4.011919538318893 7.001524889583504
Ar 1.9895795437542338 4.999974530847987 7.999975642518364
Ar 3.00490426599285 5.994506279997025 9.01010476507596
3
step=104
Ar 1.0015492037104163 4.012049158196965 7.001554667061471
Ar 1.9894789362045788 4.999973778540881 7.999974920794631
Ar 3.004948584776084 5.994450656944253 9.01019909826986
3
step=105
Ar 1.0015791163365566 4.012179069492089 7.001584739058517
Ar 1.9893783165023617 4.99997301134481 7.9999741846994175
Ar 3.004992850131743 5.994394981563657 9.010293378308535
3
step=106
Ar 1.0016093205800518 4.01230927237834 7.001615105780513
Ar 1.9892776845175775 4.9999722291050315 7.999973434080809
Ar 3.0050370620769575 5.994339253882318 9.01038760521158
3
step=107
Ar 1.0016398166159473 4.0124397670304806 7.0016457674340735
Ar 1.9891770401199163 4.9999714316665225 7.99997266878657
Ar 3.005081220628843 5.994283473927293 9.010481778998564
3
step=108
Ar 1.0016706046199808 4.012570553623968 7.001676724226554
Ar 1.9890763831787632 4.999970618873981 7.999971888664136
Ar 3.005125325804497 5.994227641725613 9.01057589968904
3
step=109
Ar 1.0017016847685851 4.012701632334951 7.001707976366057
Ar 1.9889757135631974 4.99996979057182 7.999971093560622
Ar 3.005169377621003 5.99417175730428 9.010669967302546
3
step=110
Ar 1.0017330572388887 4.012833003340275 7.00173952406143
Ar 1.9888750311419903 4.999968946604169 7.999970283322812
Ar 3.005213376095425 5.994115820690276 9.010763981858595
3
step=111
Ar 1.0017647222087185 4.0129646668174805 7.001771367522274
Ar 1.988774335783605 4.999968086814876 7.999969457797164
Ar 3.0052573212448133 5.994059831910552 9.010857943376685
3
step=112
Ar 1.0017966798566016 4.0130966229448095 7.001803506958938
Ar 1.9886736273561951 4.9999672110475 7.999968616829807
Ar 3.0053012130862005 5.9940037909920365 9.010951851876294
3
step=113
Ar 1.0018289303617667 4.013228871901203 7.001835942582526
Ar 1.9885729057276034 4.999966319145315 7.9999677602665376
Ar 3.005345051636604 5.993947697961632 9.011045707376885
3
step=114
Ar 1.0018614739041467 4.013361413866305 7.001868674604898
Ar 1.9884721707653608 4.999965410951306 7.999966887952821
Ar 3.005388836913025 5.993891552846215 9.011139509897896
3
step=115
Ar 1.0018943106643798 4.013494249020466 7.001901703238674
Ar 1.9883714223366855 4.99996448630817 7.999965999733791
Ar 3.0054325689324486 5.993835355672637 9.011233259458754
3
step=116
Ar 1.0019274408238121 4.013627377544741 7.00193502869723
Ar 1.9882706603084814 4.9999635450583115 7.999965095454247
Ar 3.0054762477118437 5.993779106467725 9.011326956078861
3
step=117
Ar 1.001960864564499 4.0137607996208935 7.001968651194709
Ar 1.9881698845473377 4.9999625870438456 7.99996417495865
Ar 3.005519873268164 5.993722805258281 9.011420599777605
3
step=118
Ar 1.0019945820692076 4.0138945154313985 7.002002570946015
Ar 1.9880690949195265 4.999961612106595 7.999963238091126
Ar 3.0055634456183467 5.993666452071081 9.011514190574353
3
step=119
Ar 1.0020285935214177 4.014028525159442 7.002036788166822
Ar 1.9879682912910035 4.999960620088086 7.999962284695463
Ar 3.005606964779314 5.993610046932876 9.011607728488457
3
step=120
Ar 1.0020628991053249 4.014162828988925 7.0020713030735715
Ar 1.987867473527405 4.9999596108295545 7.999961314615109
Ar 3.005650430767972 5.993553589870392 9.011701213539249
3
step=121
Ar 1.0020974990058418 4.014297427104465 7.002106115883476
Ar 1.9877666414940476 4.999958584171935 7.999960327693172
Ar 3.0056938436012115 5.993497080910331 9.011794645746043
3
step=122
Ar 1.0021323934086002 4.014432319691395 7.002141226814521
Ar 1.9876657950559278 4.99995753995587 7.999959323772417
Ar 3.005737203295908 5.993440520079371 9.011888025128137
3
step=123
Ar 1.002167582499953 4.014567506935772 7.002176636085468
Ar 1.9875649340777193 4.999956478021699 7.999958302695267
Ar 3.005780509868921 5.993383907404164 9.011981351704808
3
step=124
Ar 1.002203066466976 4.0147029890243715 7.002212343915859
Ar 1.9874640584237728 4.999955398209464 7.9999572643037995
Ar 3.005823763337095 5.993327242911338 9.012074625495318
3
step=125
Ar 1.0022388454974707 4.0148387661446945 7.0022483505260125
Ar 1.9873631679581152 4.999954300358908 7.9999562084397455
Ar 3.005866963717259 5.993270526627496 9.012167846518908
3
step=126
Ar 1.0022749197799647 4.014974838484968 7.002284656137032
Ar 1.9872622625444472 4.99995318430947 7.999955134944489
Ar 3.0059101110262274 5.993213758579217 9.012261014794806
3
step=127
Ar 1.0023112895037154 4.015111206234146 7.002321260970804
Ar 1.987161342046143 4.999952049900284 7.999954043659067
Ar 3.005953205280799 5.993156938793056 9.01235413034222
3
step=128
Ar 1.0023479548587109 4.015247869581913 7.002358165250004
Ar 1.9870604063262491 4.999950896970184 7.999952934424165
Ar 3.0059962464977574 5.993100067295543 9.012447193180341
3
step=129
Ar 1.0023849160356724 4.015384828718684 7.002395369198095
Ar 1.986959455247483 4.999949725357694 7.999951807080118
Ar 3.0060392346938714 5.993043144113184 9.012540203328342
3
step=130
Ar 1.0024221732260563 4.01552208383561 7.002432873039333
Ar 1.9868584886722318 4.999948534901034 7.999950661466907
Ar 3.0060821698858953 5.992986169272462 9.012633160805379
3
step=131
Ar 1.002459726622056 4.015659635124578 7.002470676998768
Ar 1.9867575064625513 4.999947325438117 7.999949497424162
Ar 3.0061250520905674 5.992929142799835 9.01272606563059
3
step=132
Ar 1.0024975764166044 4.01579748277821 7.002508781302245
Ar 1.9866565084801646 4.999946096806545 7.9999483147911565
Ar 3.0061678813246124 5.9928720647217375 9.012818917823097
3
step=133
Ar 1.0025357228033753 4.015935626989871 7.002547186176408
Ar 1.986555494586461 4.999944848843608 7.999947113406805
Ar 3.00621065760474 5.99281493506458 9.012911717402005
3
step=134
Ar 1.0025741659767862 4.016074067953667 7.002585891848705
Ar 1.9864544646424946 4.999943581386288 7.999945893109668
Ar 3.006253380947644 5.9927577538547485 9.0130044643864
3
step=135
Ar 1.0026129061319995 4.0162128058644475 7.002624898547382
Ar 1.986353418508984 4.99994229427125 7.999944653737945
Ar 3.006296051370006 5.992700521118607 9.013097158795354
3
step=136
Ar 1.0026519434649253 4.016351840917809 7.002664206501496
Ar 1.9862523560463092 4.999940987334849 7.999943395129473
Ar 3.0063386688884908 5.992643236882495 9.01318980064792
3
step=137
Ar 1.0026912781722233 4.016491173310096 7.002703815940909
Ar 1.9861512771145124 4.999939660413123 7.99994211712173
Ar 3.00638123351975 5.9925859011727285 9.013282389963134
3
step=138
Ar 1.002730910451305 4.016630803238404 7.002743727096294
Ar 1.9860501815732958 4.999938313341793 7.999940819551829
Ar 3.0064237452804203 5.992528514015599 9.013374926760017
3
step=139
Ar 1.0027708405003353 4.016770730900579 7.002783940199137
Ar 1.98594906928202 4.999936945956262 7.9999395022565185
Ar 3.0064662041871246 5.9924710754373764 9.013467411057572
3
step=140
Ar 1.0028110685182354 4.016910956495225 7.002824455481742
Ar 1.985847940099704 4.9999355580916145 7.999938165072181
Ar 3.006508610256471 5.992413585464306 9.013559842874786
3
step=141
Ar 1.0028515947046843 4.017051480221699 7.002865273177226
Ar 1.9857467938850222 4.999934149582614 7.999936807834831
Ar 3.006550963505054 5.992356044122611 9.013652222230629
3
step=142
Ar 1.0028924192601216 4.01719230228012 7.00290639351953
Ar 1.9856456304963048 4.999932720263705 7.9999354303801145
Ar 3.0065932639494535 5.992298451438491 9.013744549144054
3
step=143
Ar 1.0029335423857488 4.017333422871365 7.002947816743418
Ar 1.985544449791536 4.999931269969005 7.999934032543307
Ar 3.0066355116062358 5.992240807438122 9.013836823634
3
step=144
Ar 1.0029749642835322 4.017474842197077 7.0029895430844755
Ar 1.9854432516283522 4.999929798532309 7.999932614159312
Ar 3.0066777064919528 5.992183112147658 9.013929045719387
3
step=145
Ar 1.0030166851562043 4.017616560459663 7.003031572779119
Ar 1.9853420358640415 4.999928305787088 7.9999311750626605
Ar 3.006719848623143 5.992125365593229 9.014021215419119
3
step=146
Ar 1.0030587052072675 4.017758577862296 7.0030739060645955
Ar 1.9852408023555417 4.999926791566485 7.999929715087507
Ar 3.00676193801633 5.992067567800944 9.014113332752084
3
step=147
Ar 1.0031010246409944 4.017900894608922 7.003116543178982
Ar 1.9851395509594398 4.999925255703314 7.999928234067633
Ar 3.0068039746880255 5.992009718796886 9.014205397737156
3
step=148
Ar 1.0031436436624313 4.018043510904256 7.003159484361192
Ar 1.9850382815319703 4.999923698030062 7.99992673183644
Ar 3.006845958654726 5.99195181860712 9.01429741039319
3
step=149
Ar 1.0031865624774 4.01818642695379 7.003202729850978
Ar 1.9849369939290138 4.999922118378884 7.9999252082269505
Ar 3.006887889932915 5.9918938672576845 9.014389370739028
3
step=150
Ar 1.0032297812924997 4.018329642963788 7.003246279888931
Ar 1.984835688006096 4.999920516581604 7.999923663071809
Ar 3.006929768539062 5.991835864774597 9.014481278793495
3
step=151
Ar 1.0032733003151102 4.018473159141296 7.003290134716484
Ar 1.984734363618386 4.99991889246971 7.999922096203275
Ar 3.006971594489624 5.991777811183852 9.014573134575398
3
step=152
Ar 1.0033171197533932 4.018616975694141 7.003334294575919
Ar 1.984633020620696 4.999917245874358 7.999920507453228
Ar 3.007013367801043 5.991719706511424 9.01466493810353
3
step=153
Ar 1.003361239816295 4.018761092830931 7.003378759710362
Ar 1.9845316588674784 4.999915576626369 7.99991889665316
Ar 3.0070550884897496 5.991661550783262 9.01475668939667
3
step=154
Ar 1.0034056607135486 4.01890551076106 7.003423530363793
Ar 1.984430278212826 4.999913884556225 7.9999172636341775
Ar 3.00709675657216 5.991603344025294 9.014848388473576
3
step=155
Ar 1.0034503826556762 4.01905022969471 7.003468606781041
Ar 1.9843288785104698 4.999912169494069 7.999915608227001
Ar 3.0071383720646767 5.991545086263426 9.014940035352996
3
step=156
Ar 1.003495405853991 4.019195249842854 7.0035139892077956
Ar 1.9842274596137777 4.999910431269705 7.999913930261959
Ar 3.0071799349836907 5.9914867775235425 9.015031630053661
3
step=157
Ar 1.0035407305206006 4.019340571417254 7.0035596778906015
Ar 1.9841260213757537 4.999908669712597 7.9999122295689915
Ar 3.0072214453455786 5.991428417831506 9.015123172594286
3
step=158
Ar 1.0035863568684078 4.019486194630469 7.003605673076865
Ar 1.9840245636490363 4.999906884651864 7.999910505977645
Ar 3.007262903166704 5.991370007213156 9.015214662993571
3
step=159
Ar 1.0036322851111144 4.019632119695853 7.003651975014857
Ar 1.983923086285897 4.999905075916283 7.999908759317074
Ar 3.0073043084634183 5.991311545694312 9.015306101270202
3
step=160
Ar 1.0036785154632224 4.019778346827561 7.003698583953714
Ar 1.983821589138239 4.999903243334285 7.9999069894160355
Ar 3.0073456612520597 5.991253033300769 9.015397487442845
3
step=161
Ar 1.0037250481400373 4.019924876240549 7.003745500143441
Ar 1.9837200720575958 4.999901386733955 7.999905196102891
Ar 3.007386961548954 5.9911944700583035 9.015488821530157
3
step=162
Ar 1.0037718833576692 4.020071708150576 7.003792723834915
Ar 1.9836185348951305 4.999899505943028 7.999903379205605
Ar 3.007428209370414 5.991135855992669 9.015580103550777
3
step=163
Ar 1.0038190213330367 4.020218842774208 7.003840255279889
Ar 1.9835169775016335 4.999897600788892 7.9999015385517405