7
step=0
Ar 1.69797538000973 8.705329161598115 9.485599891034887
Ar 5.6200086833991 0.7569741034855689 1.064777564430636
Ar 1.9041932507141122 7.339575146848547 6.331321986642894
Ar 8.853915865335193 9.770215412717672 7.653514012177175
Ar 3.5141180473777918 7.750089966070155 6.492734527444281
Ar 4.23965816261003 9.5876563482635 5.9512275581905625
Ar 2.3888615628959107 3.2181842186366305 1.2689009981771675
7
step=1
Ar 1.6979967369629767 8.705385615150881 9.485685368349719
Ar 5.620074006497947 0.7569798484282485 1.064870287125559
Ar 1.9042506230749672 7.339595959882056 6.331333065052257
Ar 8.853915734172874 9.77019207716966 7.653482088752427
Ar 3.514142725796266 7.750007470695422 6.492659956046497
Ar 4.239665091604428 9.58758667912519 5.95125688334598
Ar 2.3888036364819287 3.2182234193240746 1.26889480120514
7
step=2
Ar 1.6980180960347706 8.705442066426574 9.485770838887284
Ar 5.620139328558132 0.7569855941692345 1.0649630098929708
Ar 1.9043085814043048 7.339616927060333 6.3313442048506
Ar 8.853915602556624 9.7701687415625 7.653450165188266
Ar 3.5141668756510387 7.749924966158501 6.492585287949686
Ar 4.239671961528465 9.587516867272823 5.951286250654699
Ar 2.388745711107572 3.218262619280908 1.2688886042340488
7
step=3
Ar 1.6980394572245563 8.705498515425626 9.485856302649006
Ar 5.620204649579847 0.7569913407083629 1.0650557327328254
Ar 1.904367125861771 7.339638048390121 6.331355406023226
Ar 8.85391547048643 9.770145405896187 7.653418241484691
Ar 3.5141904967873328 7.749842452465779 6.492510523171349
Ar 4.23967877237784 9.587446912692842 5.951315660112489
Ar 2.388687786772652 3.2183018185072974 1.2688824072639435
7
step=4
Ar 1.69806082053178 8.70555496214847 9.485941759636313
Ar 5.6202699695632825 0.7569970880454695 1.065148455645077
Ar 1.90442625660955 7.339659323878837 6.331366668555654
Ar 8.853915337962276 9.770122070170716 7.653386317641702
Ar 3.514213589047869 7.749759929622959 6.492435661728781
Ar 4.2396855241482125 9.587376815371695 5.951345111715106
Ar 2.3886298634769796 3.21834101700341 1.2688762102948734
7
step=5
Ar 1.6980821859558888 8.705611406595539 9.486027209850628
Ar 5.620335288508628 0.7570028361803902 1.0652411786296798
Ar 1.9044859738123692 7.339680753534575 6.331377992433626
Ar 8.853915204984151 9.770098734386083 7.653354393659296
Ar 3.5142361522728627 7.749677397635058 6.492360703639072
Ar 4.239692216835204 9.587306575295841 5.9513746054582946
Ar 2.3885719412203654 3.2183802147694127 1.2688700133268882
7
step=6
Ar 1.6981035534963311 8.705667848767261 9.486112653293368
Ar 5.6204006064160765 0.757008585112961 1.0653339016865881
Ar 1.9045462776375002 7.339702337366105 6.331389377643098
Ar 8.853915071552043 9.770075398542282 7.653322469537472
Ar 3.5142581863000224 7.749594856506407 6.49228564891911
Ar 4.239698850434396 9.587236192451751 5.951404141337786
Ar 2.388514020002621 3.2184194118054728 1.2688638163600372
7
step=7
Ar 1.6981249231525566 8.705724288664069 9.486198089965953
Ar 5.620465923285817 0.7570143348430178 1.065426624815756
Ar 1.9046071682547634 7.339724075382874 6.331400824170248
Ar 8.853914937665937 9.77005206263931 7.6532905452762305
Ar 3.5142796909645453 7.749512306240649 6.492210497585579
Ar 4.239705424941334 9.587165666825905 5.951433719349299
Ar 2.3884560998235576 3.2184586081117574 1.26885761939437
7
step=8
Ar 1.698146294924016 8.705780726286392 9.486283519869799
Ar 5.62053123911804 0.7570200853703968 1.0655193480171379
Ar 1.90466864583653 7.339745967595006 6.33141233200147
Ar 8.853914803325823 9.770028726677161 7.65325862087557
Ar 3.514300666099115 7.7494297468407405 6.492135249654959
Ar 4.239711940351523 9.587094998404794 5.951463339488541
Ar 2.388398180682986 3.2184978036884333 1.2688514224299356
7
step=9
Ar 1.6981676688101617 8.70583716163466 9.486368943006319
Ar 5.620596553912937 0.7570258366949338 1.065612071290688
Ar 1.9047307105577258 7.339768014013302 6.331423901123379
Ar 8.853914668531687 9.77000539065583 7.653226696335488
Ar 3.5143211115338984 7.749347178308951 6.492059905143526
Ar 4.239718396660427 9.587024187174919 5.951493001751205
Ar 2.3883402625807175 3.2185369985356673 1.2688452254667837
7
step=10
Ar 1.6981890448104469 8.705893594709302 9.486454359376925
Ar 5.620661867670697 0.7570315888164653 1.0657047946363605
Ar 1.9047933625958338 7.339790214649242 6.331435531522805
Ar 8.853914533283515 9.769982054575314 7.653194771655985
Ar 3.514341027096542 7.749264600646862 6.491984464067353
Ar 4.239724793863476 9.586953233122792 5.951522706132972
Ar 2.3882823455165636 3.2185761926536265 1.2688390285049636
7
step=11
Ar 1.6982104229243258 8.705950025510747 9.486539768983025
Ar 5.620727180391512 0.7570373417348271 1.0657975180541097
Ar 1.9048566021308975 7.339812569514985 6.331447223186799
Ar 8.853914397581296 9.769958718435607 7.65316284683706
Ar 3.5143604126121692 7.749182013855367 6.491908926442311
Ar 4.239731131956058 9.586882136234935 5.951552452629513
Ar 2.3882244294903354 3.2186153860424773 1.2688328315445245
7
step=12
Ar 1.6982318031512542 8.706006454039422 9.486625171826027
Ar 5.620792492075572 0.7570430954498554 1.06589024154389
Ar 1.9049204293455249 7.339835078623365 6.331458976102627
Ar 8.853914261425016 9.769935382236705 7.653130921878711
Ar 3.514379267903377 7.749099417934669 6.491833292284065
Ar 4.239737410933524 9.586810896497884 5.9515822412364825
Ar 2.3881665145018447 3.218654578702387 1.268826634585516
7
step=13
Ar 1.6982531854906893 8.706062880295754 9.486710567907334
Ar 5.620857802723068 0.7570488499613865 1.0659829651056556
Ar 1.9049848444248905 7.339857741987898 6.331470790257775
Ar 8.853914124814665 9.769912045978602 7.653098996780938
Ar 3.5143975927902336 7.749016812884285 6.491757561608081
Ar 4.239743630791186 9.586739513898179 5.9516120719495245
Ar 2.3881086005509022 3.218693770633522 1.2688204376279872
7
step=14
Ar 1.6982745699420887 8.70611930428017 9.48679595722835
Ar 5.6209231123341885 0.7570546052692567 1.066075688739361
Ar 1.9050498475567401 7.339880559622779 6.331482665639945
Ar 8.85391398775023 9.769888709661295 7.653067071543738
Ar 3.5144153870902723 7.748934198703042 6.491681734429619
Ar 4.239749791524315 9.586667988422375 5.95164194476427
Ar 2.3880506876373198 3.218732961836049 1.2688142406719876
7
step=15
Ar 1.698295956504912 8.706175725993097 9.486881339790475
Ar 5.620988420909126 0.7570603613733022 1.0661684124449604
Ar 1.905115438931393 7.339903531542882 6.331494602237058
Ar 8.853913850231699 9.76986537328478 7.653035146167112
Ar 3.5144326506184917 7.748851575389073 6.491605810763739
Ar 4.239755893128146 9.586596320057039 5.951671859676337
Ar 2.387992775760909 3.2187721523101356 1.2688080437175664
7
step=16
Ar 1.6983173451786198 8.706232145434958 9.486966715595106
Ar 5.621053728448069 0.7570661182733595 1.0662611362224084
Ar 1.9051816187417459 7.339926657763762 6.33150660003725
Ar 8.853913712259057 9.76984203684905 7.653003220651059
Ar 3.5144493831873493 7.748768942939827 6.491529790625295
Ar 4.239761935597874 9.586524508788745 5.951701816681332
Ar 2.387934864921481 3.2188113420559477 1.2688018467647728
7
step=17
Ar 1.6983387359626734 8.706288562606181 9.487052084643638
Ar 5.621119034951208 0.7570718759692646 1.066353860071659
Ar 1.9052483871832766 7.339949938301654 6.331518659028878
Ar 8.853913573832296 9.769818700354103 7.652971294995577
Ar 3.51446558460676 7.748686301352056 6.491453674028942
Ar 4.2397679189286555 9.58645255460408 5.951731815774848
Ar 2.387876955118848 3.218850531073652 1.2687956498136561
7
step=18
Ar 1.698360128856536 8.70634497750719 9.487137446937467
Ar 5.6211843404187345 0.7570776344608543 1.0664465839926671
Ar 1.9053157444540474 7.339973373173475 6.331530779200512
Ar 8.853913434951401 9.769795363799933 7.652939369200666
Ar 3.514481254684091 7.748603650621826 6.491377460989131
Ar 4.239773843115607 9.586380457489641 5.951761856952466
Ar 2.3878190463528206 3.218889719363415 1.2687894528642656
7
step=19
Ar 1.6983815238596716 8.706401390138407 9.487222802477982
Ar 5.621249644850838 0.7570833937479649 1.0665393079853869
Ar 1.9053836907547084 7.339996962396823 6.331542960540942
Ar 8.853913295616362 9.769772027186535 7.652907443266326
Ar 3.51449639322416 7.748520990744507 6.491301151520112
Ar 4.239779708153808 9.586308217432036 5.951791940209753
Ar 2.3877611386232114 3.2189289069254032 1.2687832559166503
7
step=20
Ar 1.6984029209715454 8.706457800500257 9.487308151266573
Ar 5.621314948247709 0.7570891538304327 1.0666320320497729
Ar 1.9054522262885016 7.340020705989978 6.331555203039174
Ar 8.853913155827165 9.769748690513905 7.652875517192554
Ar 3.5145110000292306 7.748438321714778 6.491224745635931
Ar 4.239785514038298 9.586235834417883 5.951822065542264
Ar 2.3877032319298315 3.2189680937597833 1.2687770589708596
7
step=21
Ar 1.698424320191624 8.70651420859316 9.487393493304626
Ar 5.621380250609536 0.7570949147080944 1.0667247561857796
Ar 1.9055213512612645 7.3400446039719025 6.331567506684429
Ar 8.8539130155838 9.76972535378204 7.6528435909793515
Ar 3.5145250748990073 7.748355643526624 6.491148243350433
Ar 4.239791260764076 9.586163308433813 5.9518522329455426
Ar 2.387645326272493 3.219007279866722 1.2687708620269427
7
step=22
Ar 1.6984457215193751 8.706570614417544 9.487478828593526
Ar 5.62144555193651 0.7571006763807866 1.0668174803933614
Ar 1.9055910658814335 7.340068656362243 6.331579871466149
Ar 8.853912874886253 9.769702016990934 7.652811664626716
Ar 3.514538617630634 7.74827295617334 6.4910716446772625
Ar 4.2397969483261075 9.586090639466466 5.951882442415117
Ar 2.3875874216510073 3.219046465246386 1.2687646650849487
7
step=23
Ar 1.6984671249542675 8.706627017973826 9.487564157134655
Ar 5.621510852228822 0.7571064388483458 1.066910204672473
Ar 1.905661370360048 7.340092863181329 6.331592297373988
Ar 8.853912733734516 9.769678680140583 7.652779738134647
Ar 3.5145516280186895 7.748190259647521 6.490994949629861
Ar 4.239802576719313 9.586017827502495 5.951912693946507
Ar 2.3875295180651865 3.2190856498989406 1.2687584681449267
7
step=24
Ar 1.6984885304957713 8.70668341926243 9.487649478929393
Ar 5.621576151486662 0.7571122021106087 1.0670029290230687
Ar 1.9057322649107542 7.340117224450175 6.33160478439782
Ar 8.853912592128575 9.769655343230982 7.652747811503145
Ar 3.514564105855183 7.7481075539410735 6.490918158221468
Ar 4.239808145938578 9.585944872528561 5.9519429875352134
Ar 2.3874716155148423 3.2191248338245533 1.268752271206926
7
step=25
Ar 1.698509938143358 8.706739818283774 9.487734793979119
Ar 5.621641449710218 0.7571179661674119 1.067095653445103
Ar 1.905803749749809 7.34014174019048 6.331617332527734
Ar 8.853912450068417 9.769632006262126 7.652715884732208
Ar 3.5145760509295507 7.748024839045205 6.490841270465121
Ar 4.239813655978746 9.58587177453134 5.9519733231767304
Ar 2.387413713999787 3.21916401702339 1.2687460742709955
7
step=26
Ar 1.6985313478964996 8.70679621503828 9.487820102285207
Ar 5.621706746899681 0.7571237310185921 1.0671883779385307
Ar 1.9058758250960839 7.340166410424627 6.331629941754035
Ar 8.853912307554033 9.769608669234012 7.652683957821836
Ar 3.5145874630286524 7.747942114950427 6.4907642863736585
Ar 4.2398191068346245 9.585798533497515 5.952003700866536
Ar 2.387355813519832 3.2192031994956167 1.2687398773371843
7
step=27
Ar 1.6985527597546703 8.706852609526365 9.487905403849032
Ar 5.621772043055241 0.7571294966639861 1.0672811025033062
Ar 1.905948491171069 7.340191235175686 6.331642612067245
Ar 8.853912164585411 9.769585332146635 7.652652030772027
Ar 3.5145983419367663 7.747859381646556 6.490687205959715
Ar 4.2398244985009805 9.585725149413783 5.952034120600096
Ar 2.3872979140747894 3.2192423812414 1.2687336804055416
7
step=28
Ar 1.6985741737173448 8.70690900174845 9.487990698671965
Ar 5.621837338177088 0.7571352631034306 1.0673738271393842
Ar 1.9060217481988768 7.3402162144674135 6.331655343458102
Ar 8.85391202116254 9.76956199499999 7.652620103582783
Ar 3.514608687435586 7.747776639122711 6.490610029235726
Ar 4.239829830972543 9.585651622266852 5.9520645823728655
Ar 2.3872400156644713 3.2192815622609063 1.2687274834761164
7
step=29
Ar 1.698595589783999 8.706965391704953 9.488075986755373
Ar 5.621902632265412 0.7571410303367625 1.0674665518467195
Ar 1.906095596406247 7.340241348324253 6.331668135917561
Ar 8.853911877285405 9.769538657794072 7.652588176254102
Ar 3.5146184993042167 7.747693887367312 6.4905327562139234
Ar 4.239835104244 9.585577952043439 5.952095086180283
Ar 2.3871821182886896 3.2193207425543013 1.2687212865489579
7
step=30
Ar 1.6986170079541103 8.707021779396293 9.488161268100624
Ar 5.621967925320401 0.7571467983638186 1.0675592766252664
Ar 1.9061700360225498 7.340266636771336 6.331680989436792
Ar 8.853911732954 9.769515320528878 7.652556248785983
Ar 3.5146277773191685 7.747611126368082 6.490455386906339
Ar 4.239840318310004 9.585504138730274 5.952125632017777
Ar 2.387124221947257 3.2193599221217517 1.2687150896241148
7
step=31
Ar 1.6986384282271572 8.707078164822885 9.488246542709083
Ar 5.6220332173422465 0.7571525671844358 1.0676520014749795
Ar 1.9062450672797906 7.340292079834482 6.331693904007181
Ar 8.85391158816831 9.769491983204404 7.652524321178425
Ar 3.5146365212543564 7.747528356112044 6.4903779213248045
Ar 4.239845473165165 9.5854301823141 5.952156219880763
Ar 2.387066326639985 3.2193991009634235 1.2687088927016366
7
step=32
Ar 1.6986598506026191 8.707134547985149 9.488331810582112
Ar 5.6220985083311374 0.7571583367984511 1.0677447263958137
Ar 1.9063206904126142 7.340317677540199 6.33170687962033
Ar 8.853911442928327 9.769468645820643 7.652492393431428
Ar 3.514644730881092 7.7474455765855215 6.490300359480949
Ar 4.239850568804055 9.585356082781669 5.952186849764642
Ar 2.3870084323666863 3.2194382790794824 1.268702695781572
7
step=33
Ar 1.6986812750799771 8.707190928883499 9.488417071721072
Ar 5.622163798287263 0.7571641072057015 1.0678374513877236
Ar 1.906396905658309 7.340343429915685 6.331719916268058
Ar 8.853911297234038 9.769445308377593 7.652460465544992
Ar 3.514652405968083 7.7473627877741365 6.4902227013862035
Ar 4.239855605221209 9.585281840119745 5.952217521664804
Ar 2.3869505391271724 3.219477456470095 1.2686964988639697
7
step=34
Ar 1.6987027016587133 8.707247307518351 9.48850232612732
Ar 5.6222290872108145 0.7571698784060239 1.067930176450664
Ar 1.9064737132568113 7.34036933698883 6.3317330139424
Ar 8.853911151085432 9.76942197087525 7.652428537519117
Ar 3.5146595462814245 7.747279989662811 6.490144947051794
Ar 4.2398605824111195 9.585207454315103 5.952248235576626
Ar 2.386892646921256 3.2195166331354272 1.268690301948879
7
step=35
Ar 1.6987241303383107 8.707303683890121 9.488587573802212
Ar 5.62229437510198 0.7571756503992554 1.0680229015845895
Ar 1.9065511134507098 7.340395398788211 6.331746172635605
Ar 8.8539110044825 9.769398633313608 7.652396609353801
Ar 3.5146661515845987 7.747197182235765 6.490067096488749
Ar 4.239865500368244 9.585132925354532 5.95227899149547
Ar 2.3868347557487497 3.219555809075645 1.2686841050363489
7
step=36
Ar 1.6987455611182538 8.707360057999223 9.488672814747101
Ar 5.6223596619609495 0.7571814231852331 1.0681156267894547
Ar 1.90662910648525 7.340421615343101 6.33175939234014
Ar 8.853910857425229 9.769375295692665 7.652364681049044
Ar 3.5146722216384685 7.747114365476515 6.489989149707895
Ar 4.239870359086996 9.58505825322483 5.952309789416689
Ar 2.3867768656094657 3.219594984290914 1.2686779081264281
7
step=37
Ar 1.6987669939980283 8.70741642984607 9.48875804896334
Ar 5.622424947787913 0.757187196763794 1.0682083520652146
Ar 1.9067076926083388 7.340447986683463 6.331772673048684
Ar 8.85391070991361 9.769351958012415 7.652332752604846
Ar 3.514677756201273 7.747031539367873 6.489911106719859
Ar 4.239875158561756 9.584983437912808 5.952340629335619
Ar 2.386718976503216 3.2196341587814006 1.2686717112191657
7
step=38
Ar 1.698788428977121 8.707472799431077 9.488843276452277
Ar 5.622490232583059 0.7571929711347753 1.068301077411824
Ar 1.906786872070549 7.340474512839954 6.331786014754137
Ar 8.85391056194763 9.769328620272853 7.652300824021207
Ar 3.514682755028623 7.746948703891948 6.489832967535065
Ar 4.23987989878686 9.584908479405287 5.952371511247584
Ar 2.3866610884298134 3.2196733325472704 1.2686655143146104
7
step=39
Ar 1.6988098660550197 8.707529166754657 9.488928497215259
Ar 5.622555516346577 0.7571987462980143 1.0683938028292375
Ar 1.9068666451251237 7.340501193843924 6.33179941744961
Ar 8.85391041352728 9.769305282473976 7.652268895298126
Ar 3.514687217873497 7.746865859030144 6.489754732163739
Ar 4.239884579756608 9.584833377689103 5.9524024351478975
Ar 2.3866032013890703 3.219712505588689 1.2686593174128113
7
step=40
Ar 1.6988313052312138 8.707585531817223 9.48901371125363
Ar 5.622620799078657 0.7572045222533482 1.06848652831741
Ar 1.9069470120279814 7.340528029727419 6.331812881128433
Ar 8.853910264652551 9.769281944615779 7.652236966435602
Ar 3.514691144486236 7.746783004763158 6.489676400615905
Ar 4.239889201465259 9.5847581327511 5.9524334010318585
Ar 2.386545315380799 3.2197516779058226 1.2686531205138172
7
step=41
Ar 1.6988527465051937 8.707641894619185 9.489098918568734
Ar 5.622686080779488 0.7572102990006143 1.0685792538762964
Ar 1.9070279730377204 7.340555020523178 6.331826405784149
Ar 8.85391011532343 9.769258606698257 7.652205037433636
Ar 3.514694534614539 7.746700141070981 6.489597972901388
Ar 4.239893763907036 9.584682744578137 5.952464408894752
Ar 2.3864874304048125 3.2197908494988368 1.2686469236176767
7
step=42
Ar 1.6988741898764508 8.707698255160954 9.489184119161912
Ar 5.622751361449259 0.7572160765396498 1.0686719795058515
Ar 1.9071095284156236 7.340582166264639 6.331839991410518
Ar 8.853909965539907 9.769235268721408 7.652173108292227
Ar 3.514697388003458 7.746617267932898 6.48951944902981
Ar 4.239898267076118 9.584607213157085 5.9524954587318515
Ar 2.386429546460923 3.2198300203678976 1.268640726724439
7
step=43
Ar 1.698895635344478 8.707754613442944 9.489269313034502
Ar 5.62281664108816 0.7572218548702921 1.06876470520603
Ar 1.9071916784256633 7.340609466985935 6.3318536380015145
Ar 8.853909815301972 9.769211930685225 7.652141179011375
Ar 3.5146997043953943 7.7465343853274815 6.489440829010595
Ar 4.23990271096665 9.584531538474824 5.952526550538416
Ar 2.3863716635489434 3.21986919051317 1.2686345298341528
7
step=44
Ar 1.698917082908769 8.707810969465562 9.489354500187837
Ar 5.622881919696379 0.7572276339923787 1.0688574309767869
Ar 1.9072744233345063 7.340636922721898 6.331867345551331
Ar 8.853909664609613 9.769188592589707 7.65210924959108
Ar 3.5147014835300916 7.746451493232598 6.489362112852967
Ar 4.239907095572734 9.58445572051825 5.952557684309694
Ar 2.386313781668686 3.219908359934821 1.2686283329468666
7
step=45
Ar 1.698938532568819 8.70786732322922 9.489439680623253
Ar 5.622947197274106 0.7572334139057468 1.068950156818077
Ar 1.9073577634115182 7.340664533508058 6.331881114054372
Ar 8.853909513462824 9.769165254434848 7.65207732003134
Ar 3.5147027251446326 7.746368591625404 6.489283300565947
Ar 4.239911420888435 9.584379759274267 5.952588860040918
Ar 2.386255900819964 3.219947528633015 1.2686221360626295
7
step=46
Ar 1.6989599843241248 8.707923674734324 9.489524854342083
Ar 5.623012473821531 0.757239194610234 1.0690428827298555
Ar 1.9074416989287695 7.340692299380643 6.331894943505261
Ar 8.853909361861591 9.769141916220642 7.652045390332157
Ar 3.514703428973434 7.746285680482342 6.489204392158358
Ar 4.239915686907779 9.584303654729794 5.9526200777273095
Ar 2.38619802100259 3.219986696607918 1.2686159391814902
7
step=47
Ar 1.6989814381741832 8.707980023981287 9.489610021345655
Ar 5.623077749338841 0.7572449761056778 1.069135608712077
Ar 1.9075262301610396 7.340720220376584 6.331908833898833
Ar 8.853909209805906 9.769118577947088 7.65201346049353
Ar 3.514703594748241 7.746202759779145 6.489125387638823
Ar 4.239919893624752 9.584227406871763 5.952651337364077
Ar 2.386140142216377 3.220025863859696 1.2686097423034972
7
step=48
Ar 1.6990028941184934 8.708036370970515 9.489695181635296
Ar 5.623143023826227 0.7572507583919156 1.0692283347646965
Ar 1.9076113573858222 7.340748296533511 6.331922785230143
Ar 8.853909057295759 9.769095239614181 7.651981530515458
Ar 3.5147032221981216 7.746119829490832 6.489046287015762
Ar 4.239924041033301 9.584151015687116 5.952682638946413
Ar 2.3860822644611375 3.220065030388514 1.2686035454286995
7
step=49
Ar 1.699024352156555 8.708092715702413 9.489780335212332
Ar 5.6232082972838775 0.7572565414687851 1.069321060887669
Ar 1.9076970808833305 7.340776527889757 6.331936797494458
Ar 8.853908904331139 9.769071901221915 7.651949600397942
Ar 3.5147023110494633 7.746036889591709 6.488967090297399
Ar 4.239928129127332 9.584074481162808 5.952713982469501
Ar 2.3860243877366845 3.220104196194537 1.2685973485571458
7
step=50
Ar 1.699045812287869 8.708149058177392 9.489865482078084
Ar 5.623273569711981 0.7572623253361239 1.0694137870809497
Ar 1.9077834009365024 7.340804914484357 6.331950870687262
Ar 8.853908750912035 9.769048562770287 7.651917670140982
Ar 3.5147008610259665 7.745953940055366 6.488887797491753
Ar 4.239932157900716 9.583997803285808 5.952745367928507
Ar 2.385966512042831 3.2201433612779318 1.2685911516888846
7
step=51
Ar 1.6990672745119382 8.708205398395858 9.489950622233874
Ar 5.623338841110727 0.7572681099937697 1.0695065133444934
Ar 1.907870317831006 7.340833456357051 6.331965004804254
Ar 8.85390859703844 9.769025224259293 7.651885739744577
Ar 3.514698871848639 7.745870980854678 6.488808408606646
Ar 4.239936127347281 9.583920982043095 5.952776795318589
Ar 2.38590863737939 3.2201825256388625 1.2685849548239647
7
step=52
Ar 1.6990887388282654 8.708261736358216 9.49003575568102
Ar 5.623404111480304 0.7572738954415601 1.0695992396782552
Ar 1.9079578318552441 7.340862153548282 6.331979199841349
Ar 8.853908442710344 9.76900188568893 7.651853809208728
Ar 3.514696343235792 7.745788011961804 6.4887289236497
Ar 4.239940037460818 9.583844017421663 5.9528082646348865
Ar 2.3858507637461743 3.2202216892774955 1.2685787579624348
7
step=53
Ar 1.6991102052363556 8.70831807206487 9.49012088242084
Ar 5.623469380820901 0.7572796816793328 1.06969196608219
Ar 1.9080459433003607 7.340891006099201 6.331993455794678
Ar 8.853908287927736 9.768978547059191 7.6518218785334335
Ar 3.5146932749030335 7.745705033348183 6.488649342628335
Ar 4.239943888235079 9.583766909408517 5.95283977587253
Ar 2.385792891142997 3.2202608521939955 1.2685725611043435
7
step=54
Ar 1.6991316737357145 8.708374405516226 9.490206002454647
Ar 5.623534649132707 0.7572854687069256 1.069784692556253
Ar 1.9081346524602456 7.3409200140516635 6.332007772660586
Ar 8.853908132690606 9.768955208370075 7.651789947718695
Ar 3.5146896665632643 7.745622044984537 6.4885696655497735
Ar 4.239947679663774 9.583689657990677 5.9528713290266335
Ar 2.3857350195696716 3.220300014388528 1.2685663642497393
7
step=55
Ar 1.699153144325849 8.708430736712689 9.490291115783753
Ar 5.623599916415911 0.7572912565241763 1.0698774191003992
Ar 1.9082239596315398 7.340949177448232 6.332022150435634
Ar 8.853907976998945 9.768931869621577 7.651758016764511
Ar 3.5146855179266705 7.745539046840868 6.488489892421034
Ar 4.239951411740577 9.583612263155173 5.952902924092301
Ar 2.385677149026011 3.2203391758612585 1.268560167398671
7
step=56
Ar 1.6991746170062674 8.708487065654662 9.490376222409468
Ar 5.623665182670701 0.7572970451309227 1.0699701457145838
Ar 1.9083138651136415 7.34097849633218 6.3320365891165995
Ar 8.853907820852745 9.768908530813691 7.651726085670882
Ar 3.51468082870072 7.745456038886457 6.488410023248939
Ar 4.239955084459121 9.58353472488905 5.9529345610646205
Ar 2.385619279511828 3.220378336612352 1.2685539705511872
7
step=57
Ar 1.699196091776479 8.708543392342548 9.4904613223331
Ar 5.623730447897266 0.7573028345270026 1.0700628723987617
Ar 1.9084043692087116 7.341007970747488 6.332051088700474
Ar 8.853907664251995 9.768885191946417 7.651694154437808
Ar 3.5146755985901557 7.745373021089862 6.488330058040107
Ar 4.239958697813 9.583457043179365 5.952966239938668
Ar 2.3855614110269365 3.2204174966419736 1.2685477737073363
7
step=58
Ar 1.6992175686359943 8.708599716776751 9.490546415555954
Ar 5.623795712095795 0.7573086247122541 1.0701555991528882
Ar 1.9084954722216791 7.341037600738849 6.332065649184467
Ar 8.853907507196688 9.768861853019747 7.651662223065291
Ar 3.5146698272969905 7.74528999341892 6.48824999680096
Ar 4.239962251795769 9.583379218013189 5.952997960709506
Ar 2.3855035435711494 3.2204566559502887 1.2685415768671668
7
step=59
Ar 1.699239047584325 8.708656038957672 9.490631502079333
Ar 5.623860975266477 0.7573144156865151 1.0702483259769182
Ar 1.9085871744602472 7.341067386351665 6.332080270566002
Ar 8.853907349686812 9.768838514033678 7.651630291553328
Ar 3.5146635145205014 7.745206955840742 6.488169839537716
Ar 4.239965746400944 9.583301249377604 5.9530297233721825
Ar 2.3854456771442796 3.2204958145374625 1.2685353800307275
7
step=60
Ar 1.6992605286209843 8.708712358885714 9.49071658190454
Ar 5.6239262374095 0.7573202074496236 1.070341052870807
Ar 1.9086794762348982 7.3410973276320535 6.332094952842718
Ar 8.853907191722358 9.768815174988207 7.6515983599019215
Ar 3.5146566599572235 7.745123908321716 6.488089586256396
Ar 4.239969181622002 9.583223137259708 5.953061527921735
Ar 2.385387811746141 3.2205349724036596 1.2685291831980667
7
step=61
Ar 1.6992820117454859 8.708768676561277 9.490801655032872
Ar 5.6239914985250525 0.7573260000014175 1.07043377983451
Ar 1.9087723778589003 7.341127424626843 6.332109696012471
Ar 8.853907033303319 9.768791835883329 7.65156642811107
Ar 3.514649263300944 7.745040850827501 6.48800923696282
Ar 4.239972557452379 9.58314488164661 5.953093374353184
Ar 2.385329947376547 3.2205741295490458 1.268522986369233
7
step=62
Ar 1.6993034969573453 8.708824991984761 9.490886721465627
Ar 5.624056758613324 0.7573317933417348 1.0705265068679821
Ar 1.908865879648313 7.341157677383578 6.332124500073331
Ar 8.853906874429684 9.76876849671904 7.6515344961807745
Ar 3.514641324242698 7.744957783323031 6.487928791662607
Ar 4.2399758738854745 9.583066482525435 5.95312526266154
Ar 2.3852720840353108 3.2206132859737857 1.268516789544275
7
step=63
Ar 1.699324984256079 8.708881305156567 9.490971781204099
Ar 5.624122017674502 0.7573375874704139 1.0706192339711786
Ar 1.9089599819219927 7.341188085950518 6.332139365023585
Ar 8.853906715101445 9.768745157495339 7.651502564111035
Ar 3.5146328424707605 7.74487470577251 6.487848250361175
Ar 4.239979130914646 9.582987939883317 5.953157192841797
Ar 2.385214221722246 3.220652441678044 1.268510592723241
7
step=64
Ar 1.6993464736412045 8.708937616077094 9.491056834249582
Ar 5.624187275708775 0.7573433823872927 1.0707119611440548
Ar 1.9090546850015997 7.341218650376638 6.332154290861737
Ar 8.853906555318593 9.768721818212217 7.651470631901852
Ar 3.514623817670641 7.744791618139413 6.487767613063744
Ar 4.239982328533213 9.582909253707408 5.953189164888938
Ar 2.3851563604371657 3.2206915966619865 1.2685043959061795
7
step=65
Ar 1.6993679651122406 8.708993924746741 9.491141880603365
Ar 5.624252532716332 0.7573491780922094 1.0708046883865658
Ar 1.9091499892116028 7.341249370711635 6.332169277586505
Ar 8.853906395081118 9.768698478869673 7.651438699553226
Ar 3.514614249525078 7.744708520386483 6.487686879775332
Ar 4.239985466734457 9.582830423984872 5.953221178797931
Ar 2.385098500179884 3.220730750925777 1.268498199093139
7
step=66
Ar 1.6993894586687075 8.709050231165907 9.491226920266737
Ar 5.62431778869736 0.7573549745850022 1.070897415698667
Ar 1.909245894879287 7.341280247005921 6.332184325196824
Ar 8.853906234389013 9.768675139467703 7.651406767065156
Ar 3.514604137714033 7.744625412475733 6.487606050500757
Ar 4.239988545511618 9.582751450702885 5.953253234563732
Ar 2.3850406409502143 3.2207699044695817 1.268492002284168
7
step=67
Ar 1.6994109543101261 8.709106535334989 9.491311953240983
Ar 5.624383043652049 0.7573607718655094 1.0709901430803135
Ar 1.909342402334758 7.341311279310629 6.332199433691844
Ar 8.85390607324227 9.768651800006303 7.651374834437644
Ar 3.514593481914684 7.74454229436844 6.487525125244637
Ar 4.239991564857898 9.58267233384864 5.953285332181282
Ar 2.3849827827479704 3.2208090572935646 1.2684858054793147
7
step=68
Ar 1.699432452036019 8.709162837254386 9.491396979527387
Ar 5.624448297580587 0.7573665699335693 1.0710828705314608
Ar 1.90943951191095 7.341342467677613 6.332214603070933
Ar 8.853905911640876 9.768628460485468 7.651342901670689
Ar 3.514582281801419 7.744459166025148 6.487444104011388
Ar 4.239994524766459 9.582593073409342 5.953317471645509
Ar 2.3849249255729656 3.2208482093978907 1.2684796086786274
7
step=69
Ar 1.6994539518459095 8.709219136924492 9.491481999127233
Ar 5.624513550483162 0.7573723687890201 1.071175598052064
Ar 1.9095372239436303 7.341373812159452 6.332229833333673
Ar 8.853905749584827 9.768605120905194 7.6513109687642915
Ar 3.5145705370458304 7.744376027405666 6.487362986805228
Ar 4.239997425230424 9.582513669372208 5.953349652951326
Ar 2.384867069425014 3.220887360782725 1.2684734118821548
7
step=70
Ar 1.6994754537393224 8.709275434345706 9.491567012041799
Ar 5.624578802359961 0.7573781684317004 1.0712683256420787
Ar 1.9096355387714072 7.341405312809444 6.332245124479864
Ar 8.853905587074113 9.768581781265478 7.651279035718452
Ar 3.514558247316708 7.744292878469064 6.487281773630173
Ar 4.240000266242877 9.582434121724473 5.953381876093636
Ar 2.384809214303929 3.2209265114482317 1.268467215089945
7
step=71
Ar 1.6994969577157837 8.709331729518421 9.491652018272362
Ar 5.624644053211175 0.7573839688614482 1.0713610533014601
Ar 1.9097344567357355 7.341436969681615 6.332260476509521
Ar 8.853905424108724 9.768558441566316 7.651247102533171
Ar 3.514545412280033 7.744209719173676 6.487200464490038
Ar 4.240003047796862 9.582354430453385 5.953414141067325
Ar 2.3847513602095245 3.220965661394576 1.2684610183020464
7
step=72
Ar 1.6995184637748204 8.709388022443035 9.491737017820197
Ar 5.62470930303699 0.7573897700781023 1.0714537810301636
Ar 1.9098339781809233 7.341468782830717 6.332275889422878